# vtk DataFile Version 3.0
Mesh2D with Detailed Node Flags
ASCII
DATASET UNSTRUCTURED_GRID
POINTS 189 float
-0.031 -0.01225 0.0
-0.028 -0.01225 0.0
-0.025 -0.01225 0.0
-0.022 -0.01225 0.0
-0.019 -0.01225 0.0
-0.016 -0.01225 0.0
-0.013 -0.01225 0.0
-0.01 -0.01225 0.0
-0.007 -0.01225 0.0
-0.004 -0.01225 0.0
-0.001 -0.01225 0.0
0.002 -0.01225 0.0
0.005 -0.01225 0.0
0.008 -0.01225 0.0
0.011 -0.01225 0.0
0.014 -0.01225 0.0
0.017 -0.01225 0.0
0.02 -0.01225 0.0
0.023 -0.01225 0.0
0.026 -0.01225 0.0
0.029 -0.01225 0.0
-0.031 -0.00925 0.0
-0.028 -0.00925 0.0
-0.025 -0.00925 0.0
-0.022 -0.00925 0.0
-0.019 -0.00925 0.0
-0.016 -0.00925 0.0
-0.013 -0.00925 0.0
-0.01 -0.00925 0.0
-0.007 -0.00925 0.0
-0.004 -0.00925 0.0
-0.001 -0.00925 0.0
0.002 -0.00925 0.0
0.005 -0.00925 0.0
0.008 -0.00925 0.0
0.011 -0.00925 0.0
0.014 -0.00925 0.0
0.017 -0.00925 0.0
0.02 -0.00925 0.0
0.023 -0.00925 0.0
0.026 -0.00925 0.0
0.029 -0.00925 0.0
-0.031 -0.00625 0.0
-0.028 -0.00625 0.0
-0.025 -0.00625 0.0
-0.022 -0.00625 0.0
-0.019 -0.00625 0.0
-0.016 -0.00625 0.0
-0.013 -0.00625 0.0
-0.01 -0.00625 0.0
-0.007 -0.00625 0.0
-0.004 -0.00625 0.0
-0.001 -0.00625 0.0
0.002 -0.00625 0.0
0.005 -0.00625 0.0
0.008 -0.00625 0.0
0.011 -0.00625 0.0
0.014 -0.00625 0.0
0.017 -0.00625 0.0
0.02 -0.00625 0.0
0.023 -0.00625 0.0
0.026 -0.00625 0.0
0.029 -0.00625 0.0
-0.031 -0.00325 0.0
-0.028 -0.00325 0.0
-0.025 -0.00325 0.0
-0.022 -0.00325 0.0
-0.019 -0.00325 0.0
-0.016 -0.00325 0.0
-0.013 -0.00325 0.0
-0.01 -0.00325 0.0
-0.007 -0.00325 0.0
-0.004 -0.00325 0.0
-0.001 -0.00325 0.0
0.002 -0.00325 0.0
0.005 -0.00325 0.0
0.008 -0.00325 0.0
0.011 -0.00325 0.0
0.014 -0.00325 0.0
0.017 -0.00325 0.0
0.02 -0.00325 0.0
0.023 -0.00325 0.0
0.026 -0.00325 0.0
0.029 -0.00325 0.0
-0.031 -0.00025 0.0
-0.028 -0.00025 0.0
-0.025 -0.00025 0.0
-0.022 -0.00025 0.0
-0.019 -0.00025 0.0
-0.016 -0.00025 0.0
-0.013 -0.00025 0.0
-0.01 -0.00025 0.0
-0.007 -0.00025 0.0
-0.004 -0.00025 0.0
-0.001 -0.00025 0.0
0.002 -0.00025 0.0
0.005 -0.00025 0.0
0.008 -0.00025 0.0
0.011 -0.00025 0.0
0.014 -0.00025 0.0
0.017 -0.00025 0.0
0.02 -0.00025 0.0
0.023 -0.00025 0.0
0.026 -0.00025 0.0
0.029 -0.00025 0.0
-0.031 0.00275 0.0
-0.028 0.00275 0.0
-0.025 0.00275 0.0
-0.022 0.00275 0.0
-0.019 0.00275 0.0
-0.016 0.00275 0.0
-0.013 0.00275 0.0
-0.01 0.00275 0.0
-0.007 0.00275 0.0
-0.004 0.00275 0.0
-0.001 0.00275 0.0
0.002 0.00275 0.0
0.005 0.00275 0.0
0.008 0.00275 0.0
0.011 0.00275 0.0
0.014 0.00275 0.0
0.017 0.00275 0.0
0.02 0.00275 0.0
0.023 0.00275 0.0
0.026 0.00275 0.0
0.029 0.00275 0.0
-0.031 0.00575 0.0
-0.028 0.00575 0.0
-0.025 0.00575 0.0
-0.022 0.00575 0.0
-0.019 0.00575 0.0
-0.016 0.00575 0.0
-0.013 0.00575 0.0
-0.01 0.00575 0.0
-0.007 0.00575 0.0
-0.004 0.00575 0.0
-0.001 0.00575 0.0
0.002 0.00575 0.0
0.005 0.00575 0.0
0.008 0.00575 0.0
0.011 0.00575 0.0
0.014 0.00575 0.0
0.017 0.00575 0.0
0.02 0.00575 0.0
0.023 0.00575 0.0
0.026 0.00575 0.0
0.029 0.00575 0.0
-0.031 0.00875 0.0
-0.028 0.00875 0.0
-0.025 0.00875 0.0
-0.022 0.00875 0.0
-0.019 0.00875 0.0
-0.016 0.00875 0.0
-0.013 0.00875 0.0
-0.01 0.00875 0.0
-0.007 0.00875 0.0
-0.004 0.00875 0.0
-0.001 0.00875 0.0
0.002 0.00875 0.0
0.005 0.00875 0.0
0.008 0.00875 0.0
0.011 0.00875 0.0
0.014 0.00875 0.0
0.017 0.00875 0.0
0.02 0.00875 0.0
0.023 0.00875 0.0
0.026 0.00875 0.0
0.029 0.00875 0.0
-0.031 0.01175 0.0
-0.028 0.01175 0.0
-0.025 0.01175 0.0
-0.022 0.01175 0.0
-0.019 0.01175 0.0
-0.016 0.01175 0.0
-0.013 0.01175 0.0
-0.01 0.01175 0.0
-0.007 0.01175 0.0
-0.004 0.01175 0.0
-0.001 0.01175 0.0
0.002 0.01175 0.0
0.005 0.01175 0.0
0.008 0.01175 0.0
0.011 0.01175 0.0
0.014 0.01175 0.0
0.017 0.01175 0.0
0.02 0.01175 0.0
0.023 0.01175 0.0
0.026 0.01175 0.0
0.029 0.01175 0.0
CELLS 160 800
4 0 1 22 21
4 1 2 23 22
4 2 3 24 23
4 3 4 25 24
4 4 5 26 25
4 5 6 27 26
4 6 7 28 27
4 7 8 29 28
4 8 9 30 29
4 9 10 31 30
4 10 11 32 31
4 11 12 33 32
4 12 13 34 33
4 13 14 35 34
4 14 15 36 35
4 15 16 37 36
4 16 17 38 37
4 17 18 39 38
4 18 19 40 39
4 19 20 41 40
4 21 22 43 42
4 22 23 44 43
4 23 24 45 44
4 24 25 46 45
4 25 26 47 46
4 26 27 48 47
4 27 28 49 48
4 28 29 50 49
4 29 30 51 50
4 30 31 52 51
4 31 32 53 52
4 32 33 54 53
4 33 34 55 54
4 34 35 56 55
4 35 36 57 56
4 36 37 58 57
4 37 38 59 58
4 38 39 60 59
4 39 40 61 60
4 40 41 62 61
4 42 43 64 63
4 43 44 65 64
4 44 45 66 65
4 45 46 67 66
4 46 47 68 67
4 47 48 69 68
4 48 49 70 69
4 49 50 71 70
4 50 51 72 71
4 51 52 73 72
4 52 53 74 73
4 53 54 75 74
4 54 55 76 75
4 55 56 77 76
4 56 57 78 77
4 57 58 79 78
4 58 59 80 79
4 59 60 81 80
4 60 61 82 81
4 61 62 83 82
4 63 64 85 84
4 64 65 86 85
4 65 66 87 86
4 66 67 88 87
4 67 68 89 88
4 68 69 90 89
4 69 70 91 90
4 70 71 92 91
4 71 72 93 92
4 72 73 94 93
4 73 74 95 94
4 74 75 96 95
4 75 76 97 96
4 76 77 98 97
4 77 78 99 98
4 78 79 100 99
4 79 80 101 100
4 80 81 102 101
4 81 82 103 102
4 82 83 104 103
4 84 85 106 105
4 85 86 107 106
4 86 87 108 107
4 87 88 109 108
4 88 89 110 109
4 89 90 111 110
4 90 91 112 111
4 91 92 113 112
4 92 93 114 113
4 93 94 115 114
4 94 95 116 115
4 95 96 117 116
4 96 97 118 117
4 97 98 119 118
4 98 99 120 119
4 99 100 121 120
4 100 101 122 121
4 101 102 123 122
4 102 103 124 123
4 103 104 125 124
4 105 106 127 126
4 106 107 128 127
4 107 108 129 128
4 108 109 130 129
4 109 110 131 130
4 110 111 132 131
4 111 112 133 132
4 112 113 134 133
4 113 114 135 134
4 114 115 136 135
4 115 116 137 136
4 116 117 138 137
4 117 118 139 138
4 118 119 140 139
4 119 120 141 140
4 120 121 142 141
4 121 122 143 142
4 122 123 144 143
4 123 124 145 144
4 124 125 146 145
4 126 127 148 147
4 127 128 149 148
4 128 129 150 149
4 129 130 151 150
4 130 131 152 151
4 131 132 153 152
4 132 133 154 153
4 133 134 155 154
4 134 135 156 155
4 135 136 157 156
4 136 137 158 157
4 137 138 159 158
4 138 139 160 159
4 139 140 161 160
4 140 141 162 161
4 141 142 163 162
4 142 143 164 163
4 143 144 165 164
4 144 145 166 165
4 145 146 167 166
4 147 148 169 168
4 148 149 170 169
4 149 150 171 170
4 150 151 172 171
4 151 152 173 172
4 152 153 174 173
4 153 154 175 174
4 154 155 176 175
4 155 156 177 176
4 156 157 178 177
4 157 158 179 178
4 158 159 180 179
4 159 160 181 180
4 160 161 182 181
4 161 162 183 182
4 162 163 184 183
4 163 164 185 184
4 164 165 186 185
4 165 166 187 186
4 166 167 188 187
CELL_TYPES 160
9
9
9
9
9
9
9
9
9
9
9
9
9
9
9
9
9
9
9
9
9
9
9
9
9
9
9
9
9
9
9
9
9
9
9
9
9
9
9
9
9
9
9
9
9
9
9
9
9
9
9
9
9
9
9
9
9
9
9
9
9
9
9
9
9
9
9
9
9
9
9
9
9
9
9
9
9
9
9
9
9
9
9
9
9
9
9
9
9
9
9
9
9
9
9
9
9
9
9
9
9
9
9
9
9
9
9
9
9
9
9
9
9
9
9
9
9
9
9
9
9
9
9
9
9
9
9
9
9
9
9
9
9
9
9
9
9
9
9
9
9
9
9
9
9
9
9
9
9
9
9
9
9
9
9
9
9
9
9
9
POINT_DATA 189
SCALARS flag_int int 1
LOOKUP_TABLE default
8
8
8
8
8
8
8
8
8
8
8
8
8
8
8
8
8
8
8
8
8
8
8
8
8
8
8
8
8
8
8
8
8
8
8
8
8
8
8
8
8
8
8
8
8
8
8
8
8
8
8
8
8
8
8
8
8
8
8
8
8
8
8
8
8
8
8
8
8
8
8
8
8
8
8
8
8
8
8
8
8
8
8
8
8
8
8
8
8
8
8
8
8
8
8
8
8
8
8
8
8
8
8
8
8
8
8
8
8
8
8
8
8
8
8
8
8
8
8
8
8
8
8
8
8
8
8
8
8
8
8
8
8
8
8
8
8
8
8
8
8
8
8
8
8
8
8
8
8
8
8
8
8
8
8
8
8
8
8
8
8
8
8
8
8
8
8
8
8
8
8
8
8
8
8
8
8
8
8
8
8
8
8
8
8
8
8
8
8
SCALARS flag_category int 1
LOOKUP_TABLE default
0
0
0
0
0
0
0
0
0
0
0
0
0
0
0
0
0
0
0
0
0
0
0
0
0
0
0
0
0
0
0
0
0
0
0
0
0
0
0
0
0
0
0
0
0
0
0
0
0
0
0
0
0
0
0
0
0
0
0
0
0
0
0
0
0
0
0
0
0
0
0
0
0
0
0
0
0
0
0
0
0
0
0
0
0
0
0
0
0
0
0
0
0
0
0
0
0
0
0
0
0
0
0
0
0
0
0
0
0
0
0
0
0
0
0
0
0
0
0
0
0
0
0
0
0
0
0
0
0
0
0
0
0
0
0
0
0
0
0
0
0
0
0
0
0
0
0
0
0
0
0
0
0
0
0
0
0
0
0
0
0
0
0
0
0
0
0
0
0
0
0
0
0
0
0
0
0
0
0
0
0
0
0
0
0
0
0
0
0
SCALARS is_boundary int 1
LOOKUP_TABLE default
0
0
0
0
0
0
0
0
0
0
0
0
0
0
0
0
0
0
0
0
0
0
0
0
0
0
0
0
0
0
0
0
0
0
0
0
0
0
0
0
0
0
0
0
0
0
0
0
0
0
0
0
0
0
0
0
0
0
0
0
0
0
0
0
0
0
0
0
0
0
0
0
0
0
0
0
0
0
0
0
0
0
0
0
0
0
0
0
0
0
0
0
0
0
0
0
0
0
0
0
0
0
0
0
0
0
0
0
0
0
0
0
0
0
0
0
0
0
0
0
0
0
0
0
0
0
0
0
0
0
0
0
0
0
0
0
0
0
0
0
0
0
0
0
0
0
0
0
0
0
0
0
0
0
0
0
0
0
0
0
0
0
0
0
0
0
0
0
0
0
0
0
0
0
0
0
0
0
0
0
0
0
0
0
0
0
0
0
0
SCALARS is_constrained int 1
LOOKUP_TABLE default
0
0
0
0
0
0
0
0
0
0
0
0
0
0
0
0
0
0
0
0
0
0
0
0
0
0
0
0
0
0
0
0
0
0
0
0
0
0
0
0
0
0
0
0
0
0
0
0
0
0
0
0
0
0
0
0
0
0
0
0
0
0
0
0
0
0
0
0
0
0
0
0
0
0
0
0
0
0
0
0
0
0
0
0
0
0
0
0
0
0
0
0
0
0
0
0
0
0
0
0
0
0
0
0
0
0
0
0
0
0
0
0
0
0
0
0
0
0
0
0
0
0
0
0
0
0
0
0
0
0
0
0
0
0
0
0
0
0
0
0
0
0
0
0
0
0
0
0
0
0
0
0
0
0
0
0
0
0
0
0
0
0
0
0
0
0
0
0
0
0
0
0
0
0
0
0
0
0
0
0
0
0
0
0
0
0
0
0
0
SCALARS flag_bitmask int 1
LOOKUP_TABLE default
0
0
0
0
0
0
0
0
0
0
0
0
0
0
0
0
0
0
0
0
0
0
0
0
0
0
0
0
0
0
0
0
0
0
0
0
0
0
0
0
0
0
0
0
0
0
0
0
0
0
0
0
0
0
0
0
0
0
0
0
0
0
0
0
0
0
0
0
0
0
0
0
0
0
0
0
0
0
0
0
0
0
0
0
0
0
0
0
0
0
0
0
0
0
0
0
0
0
0
0
0
0
0
0
0
0
0
0
0
0
0
0
0
0
0
0
0
0
0
0
0
0
0
0
0
0
0
0
0
0
0
0
0
0
0
0
0
0
0
0
0
0
0
0
0
0
0
0
0
0
0
0
0
0
0
0
0
0
0
0
0
0
0
0
0
0
0
0
0
0
0
0
0
0
0
0
0
0
0
0
0
0
0
0
0
0
0
0
0
