# vtk DataFile Version 3.0
Mesh2D with Detailed Node Flags
ASCII
DATASET UNSTRUCTURED_GRID
POINTS 85 float
-0.025 -0.00625 0.0
-0.022 -0.00625 0.0
-0.019 -0.00625 0.0
-0.016 -0.00625 0.0
-0.013 -0.00625 0.0
-0.01 -0.00625 0.0
-0.007 -0.00625 0.0
-0.004 -0.00625 0.0
-0.001 -0.00625 0.0
0.002 -0.00625 0.0
0.005 -0.00625 0.0
0.008 -0.00625 0.0
0.011 -0.00625 0.0
0.014 -0.00625 0.0
0.017 -0.00625 0.0
0.02 -0.00625 0.0
0.023 -0.00625 0.0
-0.025 -0.00325 0.0
-0.022 -0.00325 0.0
-0.019 -0.00325 0.0
-0.016 -0.00325 0.0
-0.013 -0.00325 0.0
-0.01 -0.00325 0.0
-0.007 -0.00325 0.0
-0.004 -0.00325 0.0
-0.001 -0.00325 0.0
0.002 -0.00325 0.0
0.005 -0.00325 0.0
0.008 -0.00325 0.0
0.011 -0.00325 0.0
0.014 -0.00325 0.0
0.017 -0.00325 0.0
0.02 -0.00325 0.0
0.023 -0.00325 0.0
-0.025 -0.00025 0.0
-0.022 -0.00025 0.0
-0.019 -0.00025 0.0
-0.016 -0.00025 0.0
-0.013 -0.00025 0.0
-0.01 -0.00025 0.0
-0.007 -0.00025 0.0
-0.004 -0.00025 0.0
-0.001 -0.00025 0.0
0.002 -0.00025 0.0
0.005 -0.00025 0.0
0.008 -0.00025 0.0
0.011 -0.00025 0.0
0.014 -0.00025 0.0
0.017 -0.00025 0.0
0.02 -0.00025 0.0
0.023 -0.00025 0.0
-0.025 0.00275 0.0
-0.022 0.00275 0.0
-0.019 0.00275 0.0
-0.016 0.00275 0.0
-0.013 0.00275 0.0
-0.01 0.00275 0.0
-0.007 0.00275 0.0
-0.004 0.00275 0.0
-0.001 0.00275 0.0
0.002 0.00275 0.0
0.005 0.00275 0.0
0.008 0.00275 0.0
0.011 0.00275 0.0
0.014 0.00275 0.0
0.017 0.00275 0.0
0.02 0.00275 0.0
0.023 0.00275 0.0
-0.025 0.00575 0.0
-0.022 0.00575 0.0
-0.019 0.00575 0.0
-0.016 0.00575 0.0
-0.013 0.00575 0.0
-0.01 0.00575 0.0
-0.007 0.00575 0.0
-0.004 0.00575 0.0
-0.001 0.00575 0.0
0.002 0.00575 0.0
0.005 0.00575 0.0
0.008 0.00575 0.0
0.011 0.00575 0.0
0.014 0.00575 0.0
0.017 0.00575 0.0
0.02 0.00575 0.0
0.023 0.00575 0.0
CELLS 64 320
4 0 1 18 17
4 1 2 19 18
4 2 3 20 19
4 3 4 21 20
4 4 5 22 21
4 5 6 23 22
4 6 7 24 23
4 7 8 25 24
4 8 9 26 25
4 9 10 27 26
4 10 11 28 27
4 11 12 29 28
4 12 13 30 29
4 13 14 31 30
4 14 15 32 31
4 15 16 33 32
4 17 18 35 34
4 18 19 36 35
4 19 20 37 36
4 20 21 38 37
4 21 22 39 38
4 22 23 40 39
4 23 24 41 40
4 24 25 42 41
4 25 26 43 42
4 26 27 44 43
4 27 28 45 44
4 28 29 46 45
4 29 30 47 46
4 30 31 48 47
4 31 32 49 48
4 32 33 50 49
4 34 35 52 51
4 35 36 53 52
4 36 37 54 53
4 37 38 55 54
4 38 39 56 55
4 39 40 57 56
4 40 41 58 57
4 41 42 59 58
4 42 43 60 59
4 43 44 61 60
4 44 45 62 61
4 45 46 63 62
4 46 47 64 63
4 47 48 65 64
4 48 49 66 65
4 49 50 67 66
4 51 52 69 68
4 52 53 70 69
4 53 54 71 70
4 54 55 72 71
4 55 56 73 72
4 56 57 74 73
4 57 58 75 74
4 58 59 76 75
4 59 60 77 76
4 60 61 78 77
4 61 62 79 78
4 62 63 80 79
4 63 64 81 80
4 64 65 82 81
4 65 66 83 82
4 66 67 84 83
CELL_TYPES 64
9
9
9
9
9
9
9
9
9
9
9
9
9
9
9
9
9
9
9
9
9
9
9
9
9
9
9
9
9
9
9
9
9
9
9
9
9
9
9
9
9
9
9
9
9
9
9
9
9
9
9
9
9
9
9
9
9
9
9
9
9
9
9
9
POINT_DATA 85
SCALARS flag_int int 1
LOOKUP_TABLE default
8
8
8
8
8
8
8
8
8
8
8
8
8
8
8
8
8
8
8
8
8
8
8
8
8
8
8
8
8
8
8
8
8
8
8
8
8
8
8
8
8
8
8
8
8
8
8
8
8
8
8
8
8
8
8
8
8
8
8
8
8
8
8
8
8
8
8
8
8
8
8
8
8
8
8
8
8
8
8
8
8
8
8
8
8
SCALARS flag_category int 1
LOOKUP_TABLE default
0
0
0
0
0
0
0
0
0
0
0
0
0
0
0
0
0
0
0
0
0
0
0
0
0
0
0
0
0
0
0
0
0
0
0
0
0
0
0
0
0
0
0
0
0
0
0
0
0
0
0
0
0
0
0
0
0
0
0
0
0
0
0
0
0
0
0
0
0
0
0
0
0
0
0
0
0
0
0
0
0
0
0
0
0
SCALARS is_boundary int 1
LOOKUP_TABLE default
0
0
0
0
0
0
0
0
0
0
0
0
0
0
0
0
0
0
0
0
0
0
0
0
0
0
0
0
0
0
0
0
0
0
0
0
0
0
0
0
0
0
0
0
0
0
0
0
0
0
0
0
0
0
0
0
0
0
0
0
0
0
0
0
0
0
0
0
0
0
0
0
0
0
0
0
0
0
0
0
0
0
0
0
0
SCALARS is_constrained int 1
LOOKUP_TABLE default
0
0
0
0
0
0
0
0
0
0
0
0
0
0
0
0
0
0
0
0
0
0
0
0
0
0
0
0
0
0
0
0
0
0
0
0
0
0
0
0
0
0
0
0
0
0
0
0
0
0
0
0
0
0
0
0
0
0
0
0
0
0
0
0
0
0
0
0
0
0
0
0
0
0
0
0
0
0
0
0
0
0
0
0
0
SCALARS flag_bitmask int 1
LOOKUP_TABLE default
0
0
0
0
0
0
0
0
0
0
0
0
0
0
0
0
0
0
0
0
0
0
0
0
0
0
0
0
0
0
0
0
0
0
0
0
0
0
0
0
0
0
0
0
0
0
0
0
0
0
0
0
0
0
0
0
0
0
0
0
0
0
0
0
0
0
0
0
0
0
0
0
0
0
0
0
0
0
0
0
0
0
0
0
0
