# vtk DataFile Version 3.0
Mesh2D with Detailed Node Flags
ASCII
DATASET UNSTRUCTURED_GRID
POINTS 90 float
-0.022 -0.00325 0.0
-0.019 -0.00325 0.0
-0.016 -0.00325 0.0
-0.013 -0.00325 0.0
-0.01 -0.00325 0.0
-0.007 -0.00325 0.0
-0.004 -0.00325 0.0
-0.001 -0.00325 0.0
0.002 -0.00325 0.0
0.005 -0.00325 0.0
0.008 -0.00325 0.0
0.011 -0.00325 0.0
0.014 -0.00325 0.0
0.017 -0.00325 0.0
0.02 -0.00325 0.0
0.023 -0.00325 0.0
-0.022 -0.00025 0.0
-0.019 -0.00025 0.0
-0.016 -0.00025 0.0
-0.013 -0.00025 0.0
-0.01 -0.00025 0.0
-0.007 -0.00025 0.0
-0.004 -0.00025 0.0
-0.001 -0.00025 0.0
0.002 -0.00025 0.0
0.005 -0.00025 0.0
0.008 -0.00025 0.0
0.011 -0.00025 0.0
0.014 -0.00025 0.0
0.017 -0.00025 0.0
0.02 -0.00025 0.0
0.023 -0.00025 0.0
-0.022 0.00275 0.0
-0.019 0.00275 0.0
-0.016 0.00275 0.0
-0.013 0.00275 0.0
-0.01 0.00275 0.0
-0.007 0.00275 0.0
-0.004 0.00275 0.0
-0.001 0.00275 0.0
0.002 0.00275 0.0
0.005 0.00275 0.0
0.008 0.00275 0.0
0.011 0.00275 0.0
0.014 0.00275 0.0
0.017 0.00275 0.0
0.02 0.00275 0.0
0.023 0.00275 0.0
-0.025 -0.00625 0.0
-0.022 -0.00625 0.0
-0.019 -0.00625 0.0
-0.016 -0.00625 0.0
-0.013 -0.00625 0.0
-0.01 -0.00625 0.0
-0.007 -0.00625 0.0
-0.004 -0.00625 0.0
-0.001 -0.00625 0.0
0.002 -0.00625 0.0
0.005 -0.00625 0.0
0.008 -0.00625 0.0
0.011 -0.00625 0.0
0.014 -0.00625 0.0
0.017 -0.00625 0.0
0.02 -0.00625 0.0
0.023 -0.00625 0.0
0.025 -0.00625 0.0
0.025 -0.00325 0.0
0.025 -0.00025 0.0
0.025 0.00275 0.0
0.025 0.00625 0.0
0.023 0.00625 0.0
0.02 0.00625 0.0
0.017 0.00625 0.0
0.014 0.00625 0.0
0.011 0.00625 0.0
0.008 0.00625 0.0
0.005 0.00625 0.0
0.002 0.00625 0.0
-0.001 0.00625 0.0
-0.004 0.00625 0.0
-0.007 0.00625 0.0
-0.01 0.00625 0.0
-0.013 0.00625 0.0
-0.016 0.00625 0.0
-0.019 0.00625 0.0
-0.022 0.00625 0.0
-0.025 0.00625 0.0
-0.025 0.00275 0.0
-0.025 -0.00025 0.0
-0.025 -0.00325 0.0
CELLS 68 340
4 0 1 17 16
4 1 2 18 17
4 2 3 19 18
4 3 4 20 19
4 4 5 21 20
4 5 6 22 21
4 6 7 23 22
4 7 8 24 23
4 8 9 25 24
4 9 10 26 25
4 10 11 27 26
4 11 12 28 27
4 12 13 29 28
4 13 14 30 29
4 14 15 31 30
4 16 17 33 32
4 17 18 34 33
4 18 19 35 34
4 19 20 36 35
4 20 21 37 36
4 21 22 38 37
4 22 23 39 38
4 23 24 40 39
4 24 25 41 40
4 25 26 42 41
4 26 27 43 42
4 27 28 44 43
4 28 29 45 44
4 29 30 46 45
4 30 31 47 46
4 49 0 89 48
4 0 49 50 1
4 1 50 51 2
4 2 51 52 3
4 3 52 53 4
4 4 53 54 5
4 5 54 55 6
4 6 55 56 7
4 7 56 57 8
4 8 57 58 9
4 10 59 60 11
4 13 62 63 14
4 12 61 62 13
4 16 88 89 0
4 32 87 88 16
4 14 63 64 15
4 9 58 59 10
4 11 60 61 12
4 41 76 77 40
4 85 86 87 32
4 35 82 83 34
4 40 77 78 39
4 43 74 75 42
4 45 72 73 44
4 46 71 72 45
4 39 78 79 38
4 38 79 80 37
4 37 80 81 36
4 36 81 82 35
4 34 83 84 33
4 33 84 85 32
4 44 73 74 43
4 42 75 76 41
4 47 70 71 46
4 31 67 68 47
4 15 66 67 31
4 64 65 66 15
4 68 69 70 47
CELL_TYPES 68
9
9
9
9
9
9
9
9
9
9
9
9
9
9
9
9
9
9
9
9
9
9
9
9
9
9
9
9
9
9
9
9
9
9
9
9
9
9
9
9
9
9
9
9
9
9
9
9
9
9
9
9
9
9
9
9
9
9
9
9
9
9
9
9
9
9
9
9
POINT_DATA 90
SCALARS flag_int int 1
LOOKUP_TABLE default
8
8
8
8
8
8
8
8
8
8
8
8
8
8
8
8
8
8
8
8
8
8
8
8
8
8
8
8
8
8
8
8
8
8
8
8
8
8
8
8
8
8
8
8
8
8
8
8
8
8
8
8
8
8
8
8
8
8
8
8
8
8
8
8
8
8
8
8
8
8
8
8
8
8
8
8
8
8
8
8
8
8
8
8
8
8
8
8
8
8
SCALARS flag_category int 1
LOOKUP_TABLE default
0
0
0
0
0
0
0
0
0
0
0
0
0
0
0
0
0
0
0
0
0
0
0
0
0
0
0
0
0
0
0
0
0
0
0
0
0
0
0
0
0
0
0
0
0
0
0
0
0
0
0
0
0
0
0
0
0
0
0
0
0
0
0
0
0
0
0
0
0
0
0
0
0
0
0
0
0
0
0
0
0
0
0
0
0
0
0
0
0
0
SCALARS is_boundary int 1
LOOKUP_TABLE default
0
0
0
0
0
0
0
0
0
0
0
0
0
0
0
0
0
0
0
0
0
0
0
0
0
0
0
0
0
0
0
0
0
0
0
0
0
0
0
0
0
0
0
0
0
0
0
0
0
0
0
0
0
0
0
0
0
0
0
0
0
0
0
0
0
0
0
0
0
0
0
0
0
0
0
0
0
0
0
0
0
0
0
0
0
0
0
0
0
0
SCALARS is_constrained int 1
LOOKUP_TABLE default
0
0
0
0
0
0
0
0
0
0
0
0
0
0
0
0
0
0
0
0
0
0
0
0
0
0
0
0
0
0
0
0
0
0
0
0
0
0
0
0
0
0
0
0
0
0
0
0
0
0
0
0
0
0
0
0
0
0
0
0
0
0
0
0
0
0
0
0
0
0
0
0
0
0
0
0
0
0
0
0
0
0
0
0
0
0
0
0
0
0
SCALARS flag_bitmask int 1
LOOKUP_TABLE default
0
0
0
0
0
0
0
0
0
0
0
0
0
0
0
0
0
0
0
0
0
0
0
0
0
0
0
0
0
0
0
0
0
0
0
0
0
0
0
0
0
0
0
0
0
0
0
0
0
0
0
0
0
0
0
0
0
0
0
0
0
0
0
0
0
0
0
0
0
0
0
0
0
0
0
0
0
0
0
0
0
0
0
0
0
0
0
0
0
0
