# vtk DataFile Version 3.0
Mesh2D with Detailed Node Flags
ASCII
DATASET UNSTRUCTURED_GRID
POINTS 48 float
-0.022 -0.00325 0.0
-0.019 -0.00325 0.0
-0.016 -0.00325 0.0
-0.013 -0.00325 0.0
-0.01 -0.00325 0.0
-0.007 -0.00325 0.0
-0.004 -0.00325 0.0
-0.001 -0.00325 0.0
0.002 -0.00325 0.0
0.005 -0.00325 0.0
0.008 -0.00325 0.0
0.011 -0.00325 0.0
0.014 -0.00325 0.0
0.017 -0.00325 0.0
0.02 -0.00325 0.0
0.023 -0.00325 0.0
-0.022 -0.00025 0.0
-0.019 -0.00025 0.0
-0.016 -0.00025 0.0
-0.013 -0.00025 0.0
-0.01 -0.00025 0.0
-0.007 -0.00025 0.0
-0.004 -0.00025 0.0
-0.001 -0.00025 0.0
0.002 -0.00025 0.0
0.005 -0.00025 0.0
0.008 -0.00025 0.0
0.011 -0.00025 0.0
0.014 -0.00025 0.0
0.017 -0.00025 0.0
0.02 -0.00025 0.0
0.023 -0.00025 0.0
-0.022 0.00275 0.0
-0.019 0.00275 0.0
-0.016 0.00275 0.0
-0.013 0.00275 0.0
-0.01 0.00275 0.0
-0.007 0.00275 0.0
-0.004 0.00275 0.0
-0.001 0.00275 0.0
0.002 0.00275 0.0
0.005 0.00275 0.0
0.008 0.00275 0.0
0.011 0.00275 0.0
0.014 0.00275 0.0
0.017 0.00275 0.0
0.02 0.00275 0.0
0.023 0.00275 0.0
CELLS 30 150
4 0 1 17 16
4 1 2 18 17
4 2 3 19 18
4 3 4 20 19
4 4 5 21 20
4 5 6 22 21
4 6 7 23 22
4 7 8 24 23
4 8 9 25 24
4 9 10 26 25
4 10 11 27 26
4 11 12 28 27
4 12 13 29 28
4 13 14 30 29
4 14 15 31 30
4 16 17 33 32
4 17 18 34 33
4 18 19 35 34
4 19 20 36 35
4 20 21 37 36
4 21 22 38 37
4 22 23 39 38
4 23 24 40 39
4 24 25 41 40
4 25 26 42 41
4 26 27 43 42
4 27 28 44 43
4 28 29 45 44
4 29 30 46 45
4 30 31 47 46
CELL_TYPES 30
9
9
9
9
9
9
9
9
9
9
9
9
9
9
9
9
9
9
9
9
9
9
9
9
9
9
9
9
9
9
POINT_DATA 48
SCALARS flag_int int 1
LOOKUP_TABLE default
8
8
8
8
8
8
8
8
8
8
8
8
8
8
8
8
8
8
8
8
8
8
8
8
8
8
8
8
8
8
8
8
8
8
8
8
8
8
8
8
8
8
8
8
8
8
8
8
SCALARS flag_category int 1
LOOKUP_TABLE default
0
0
0
0
0
0
0
0
0
0
0
0
0
0
0
0
0
0
0
0
0
0
0
0
0
0
0
0
0
0
0
0
0
0
0
0
0
0
0
0
0
0
0
0
0
0
0
0
SCALARS is_boundary int 1
LOOKUP_TABLE default
0
0
0
0
0
0
0
0
0
0
0
0
0
0
0
0
0
0
0
0
0
0
0
0
0
0
0
0
0
0
0
0
0
0
0
0
0
0
0
0
0
0
0
0
0
0
0
0
SCALARS is_constrained int 1
LOOKUP_TABLE default
0
0
0
0
0
0
0
0
0
0
0
0
0
0
0
0
0
0
0
0
0
0
0
0
0
0
0
0
0
0
0
0
0
0
0
0
0
0
0
0
0
0
0
0
0
0
0
0
SCALARS flag_bitmask int 1
LOOKUP_TABLE default
0
0
0
0
0
0
0
0
0
0
0
0
0
0
0
0
0
0
0
0
0
0
0
0
0
0
0
0
0
0
0
0
0
0
0
0
0
0
0
0
0
0
0
0
0
0
0
0
