# vtk DataFile Version 3.0
Mesh2D with Detailed Node Flags
ASCII
DATASET UNSTRUCTURED_GRID
POINTS 81 float
-4.33681e-19 -0.0075 0.0
0.001 -0.0065 0.0
0.002 -0.0065 0.0
0.003 -0.0065 0.0
0.001 -0.0055 0.0
0.002 -0.0055 0.0
0.003 -0.0055 0.0
0.004 -0.0055 0.0
0.005 -0.0055 0.0
0.001 -0.0045 0.0
0.002 -0.0045 0.0
0.003 -0.0045 0.0
0.004 -0.0045 0.0
0.005 -0.0045 0.0
0.001 -0.0035 0.0
0.002 -0.0035 0.0
0.003 -0.0035 0.0
0.004 -0.0035 0.0
0.005 -0.0035 0.0
0.006 -0.0035 0.0
0.001 -0.0025 0.0
0.002 -0.0025 0.0
0.003 -0.0025 0.0
0.004 -0.0025 0.0
0.005 -0.0025 0.0
0.006 -0.0025 0.0
0.007 -0.0025 0.0
0.001 -0.0015 0.0
0.002 -0.0015 0.0
0.003 -0.0015 0.0
0.004 -0.0015 0.0
0.005 -0.0015 0.0
0.006 -0.0015 0.0
0.007 -0.0015 0.0
0.001 -0.0005 0.0
0.002 -0.0005 0.0
0.003 -0.0005 0.0
0.004 -0.0005 0.0
0.005 -0.0005 0.0
0.006 -0.0005 0.0
0.007 -0.0005 0.0
0.001 0.0005 0.0
0.002 0.0005 0.0
0.003 0.0005 0.0
0.004 0.0005 0.0
0.005 0.0005 0.0
0.006 0.0005 0.0
0.007 0.0005 0.0
0.001 0.0015 0.0
0.002 0.0015 0.0
0.003 0.0015 0.0
0.004 0.0015 0.0
0.005 0.0015 0.0
0.006 0.0015 0.0
0.007 0.0015 0.0
0.001 0.0025 0.0
0.002 0.0025 0.0
0.003 0.0025 0.0
0.004 0.0025 0.0
0.005 0.0025 0.0
0.006 0.0025 0.0
0.007 0.0025 0.0
0.001 0.0035 0.0
0.002 0.0035 0.0
0.003 0.0035 0.0
0.004 0.0035 0.0
0.005 0.0035 0.0
0.006 0.0035 0.0
0.001 0.0045 0.0
0.002 0.0045 0.0
0.003 0.0045 0.0
0.004 0.0045 0.0
0.005 0.0045 0.0
0.001 0.0055 0.0
0.002 0.0055 0.0
0.003 0.0055 0.0
0.004 0.0055 0.0
0.005 0.0055 0.0
0.001 0.0065 0.0
0.002 0.0065 0.0
0.003 0.0065 0.0
CELLS 60 300
4 1 2 5 4
4 2 3 6 5
4 4 5 10 9
4 5 6 11 10
4 6 7 12 11
4 7 8 13 12
4 9 10 15 14
4 10 11 16 15
4 11 12 17 16
4 12 13 18 17
4 14 15 21 20
4 15 16 22 21
4 16 17 23 22
4 17 18 24 23
4 18 19 25 24
4 20 21 28 27
4 21 22 29 28
4 22 23 30 29
4 23 24 31 30
4 24 25 32 31
4 25 26 33 32
4 27 28 35 34
4 28 29 36 35
4 29 30 37 36
4 30 31 38 37
4 31 32 39 38
4 32 33 40 39
4 34 35 42 41
4 35 36 43 42
4 36 37 44 43
4 37 38 45 44
4 38 39 46 45
4 39 40 47 46
4 41 42 49 48
4 42 43 50 49
4 43 44 51 50
4 44 45 52 51
4 45 46 53 52
4 46 47 54 53
4 48 49 56 55
4 49 50 57 56
4 50 51 58 57
4 51 52 59 58
4 52 53 60 59
4 53 54 61 60
4 55 56 63 62
4 56 57 64 63
4 57 58 65 64
4 58 59 66 65
4 59 60 67 66
4 62 63 69 68
4 63 64 70 69
4 64 65 71 70
4 65 66 72 71
4 68 69 74 73
4 69 70 75 74
4 70 71 76 75
4 71 72 77 76
4 73 74 79 78
4 74 75 80 79
CELL_TYPES 60
9
9
9
9
9
9
9
9
9
9
9
9
9
9
9
9
9
9
9
9
9
9
9
9
9
9
9
9
9
9
9
9
9
9
9
9
9
9
9
9
9
9
9
9
9
9
9
9
9
9
9
9
9
9
9
9
9
9
9
9
POINT_DATA 81
SCALARS flag_int int 1
LOOKUP_TABLE default
8
8
8
8
8
8
8
8
8
8
8
8
8
8
8
8
8
8
8
8
8
8
8
8
8
8
8
8
8
8
8
8
8
8
8
8
8
8
8
8
8
8
8
8
8
8
8
8
8
8
8
8
8
8
8
8
8
8
8
8
8
8
8
8
8
8
8
8
8
8
8
8
8
8
8
8
8
8
8
8
8
SCALARS flag_category int 1
LOOKUP_TABLE default
0
0
0
0
0
0
0
0
0
0
0
0
0
0
0
0
0
0
0
0
0
0
0
0
0
0
0
0
0
0
0
0
0
0
0
0
0
0
0
0
0
0
0
0
0
0
0
0
0
0
0
0
0
0
0
0
0
0
0
0
0
0
0
0
0
0
0
0
0
0
0
0
0
0
0
0
0
0
0
0
0
SCALARS is_boundary int 1
LOOKUP_TABLE default
0
0
0
0
0
0
0
0
0
0
0
0
0
0
0
0
0
0
0
0
0
0
0
0
0
0
0
0
0
0
0
0
0
0
0
0
0
0
0
0
0
0
0
0
0
0
0
0
0
0
0
0
0
0
0
0
0
0
0
0
0
0
0
0
0
0
0
0
0
0
0
0
0
0
0
0
0
0
0
0
0
SCALARS is_constrained int 1
LOOKUP_TABLE default
0
0
0
0
0
0
0
0
0
0
0
0
0
0
0
0
0
0
0
0
0
0
0
0
0
0
0
0
0
0
0
0
0
0
0
0
0
0
0
0
0
0
0
0
0
0
0
0
0
0
0
0
0
0
0
0
0
0
0
0
0
0
0
0
0
0
0
0
0
0
0
0
0
0
0
0
0
0
0
0
0
SCALARS flag_bitmask int 1
LOOKUP_TABLE default
0
0
0
0
0
0
0
0
0
0
0
0
0
0
0
0
0
0
0
0
0
0
0
0
0
0
0
0
0
0
0
0
0
0
0
0
0
0
0
0
0
0
0
0
0
0
0
0
0
0
0
0
0
0
0
0
0
0
0
0
0
0
0
0
0
0
0
0
0
0
0
0
0
0
0
0
0
0
0
0
0
