# vtk DataFile Version 3.0
Mesh2D with Detailed Node Flags
ASCII
DATASET UNSTRUCTURED_GRID
POINTS 70 float
0.001 -0.0065 0.0
0.002 -0.0065 0.0
0.001 -0.0055 0.0
0.002 -0.0055 0.0
0.003 -0.0055 0.0
0.004 -0.0055 0.0
0.001 -0.0045 0.0
0.002 -0.0045 0.0
0.003 -0.0045 0.0
0.004 -0.0045 0.0
0.005 -0.0045 0.0
0.001 -0.0035 0.0
0.002 -0.0035 0.0
0.003 -0.0035 0.0
0.004 -0.0035 0.0
0.005 -0.0035 0.0
0.006 -0.0035 0.0
0.001 -0.0025 0.0
0.002 -0.0025 0.0
0.003 -0.0025 0.0
0.004 -0.0025 0.0
0.005 -0.0025 0.0
0.006 -0.0025 0.0
0.001 -0.0015 0.0
0.002 -0.0015 0.0
0.003 -0.0015 0.0
0.004 -0.0015 0.0
0.005 -0.0015 0.0
0.006 -0.0015 0.0
0.001 -0.0005 0.0
0.002 -0.0005 0.0
0.003 -0.0005 0.0
0.004 -0.0005 0.0
0.005 -0.0005 0.0
0.006 -0.0005 0.0
0.001 0.0005 0.0
0.002 0.0005 0.0
0.003 0.0005 0.0
0.004 0.0005 0.0
0.005 0.0005 0.0
0.006 0.0005 0.0
0.001 0.0015 0.0
0.002 0.0015 0.0
0.003 0.0015 0.0
0.004 0.0015 0.0
0.005 0.0015 0.0
0.006 0.0015 0.0
0.001 0.0025 0.0
0.002 0.0025 0.0
0.003 0.0025 0.0
0.004 0.0025 0.0
0.005 0.0025 0.0
0.006 0.0025 0.0
0.001 0.0035 0.0
0.002 0.0035 0.0
0.003 0.0035 0.0
0.004 0.0035 0.0
0.005 0.0035 0.0
0.006 0.0035 0.0
0.001 0.0045 0.0
0.002 0.0045 0.0
0.003 0.0045 0.0
0.004 0.0045 0.0
0.005 0.0045 0.0
0.001 0.0055 0.0
0.002 0.0055 0.0
0.003 0.0055 0.0
0.004 0.0055 0.0
0.001 0.0065 0.0
0.002 0.0065 0.0
CELLS 51 255
4 0 1 3 2
4 2 3 7 6
4 3 4 8 7
4 4 5 9 8
4 6 7 12 11
4 7 8 13 12
4 8 9 14 13
4 9 10 15 14
4 11 12 18 17
4 12 13 19 18
4 13 14 20 19
4 14 15 21 20
4 15 16 22 21
4 17 18 24 23
4 18 19 25 24
4 19 20 26 25
4 20 21 27 26
4 21 22 28 27
4 23 24 30 29
4 24 25 31 30
4 25 26 32 31
4 26 27 33 32
4 27 28 34 33
4 29 30 36 35
4 30 31 37 36
4 31 32 38 37
4 32 33 39 38
4 33 34 40 39
4 35 36 42 41
4 36 37 43 42
4 37 38 44 43
4 38 39 45 44
4 39 40 46 45
4 41 42 48 47
4 42 43 49 48
4 43 44 50 49
4 44 45 51 50
4 45 46 52 51
4 47 48 54 53
4 48 49 55 54
4 49 50 56 55
4 50 51 57 56
4 51 52 58 57
4 53 54 60 59
4 54 55 61 60
4 55 56 62 61
4 56 57 63 62
4 59 60 65 64
4 60 61 66 65
4 61 62 67 66
4 64 65 69 68
CELL_TYPES 51
9
9
9
9
9
9
9
9
9
9
9
9
9
9
9
9
9
9
9
9
9
9
9
9
9
9
9
9
9
9
9
9
9
9
9
9
9
9
9
9
9
9
9
9
9
9
9
9
9
9
9
POINT_DATA 70
SCALARS flag_int int 1
LOOKUP_TABLE default
8
8
8
8
8
8
8
8
8
8
8
8
8
8
8
8
8
8
8
8
8
8
8
8
8
8
8
8
8
8
8
8
8
8
8
8
8
8
8
8
8
8
8
8
8
8
8
8
8
8
8
8
8
8
8
8
8
8
8
8
8
8
8
8
8
8
8
8
8
8
SCALARS flag_category int 1
LOOKUP_TABLE default
0
0
0
0
0
0
0
0
0
0
0
0
0
0
0
0
0
0
0
0
0
0
0
0
0
0
0
0
0
0
0
0
0
0
0
0
0
0
0
0
0
0
0
0
0
0
0
0
0
0
0
0
0
0
0
0
0
0
0
0
0
0
0
0
0
0
0
0
0
0
SCALARS is_boundary int 1
LOOKUP_TABLE default
0
0
0
0
0
0
0
0
0
0
0
0
0
0
0
0
0
0
0
0
0
0
0
0
0
0
0
0
0
0
0
0
0
0
0
0
0
0
0
0
0
0
0
0
0
0
0
0
0
0
0
0
0
0
0
0
0
0
0
0
0
0
0
0
0
0
0
0
0
0
SCALARS is_constrained int 1
LOOKUP_TABLE default
0
0
0
0
0
0
0
0
0
0
0
0
0
0
0
0
0
0
0
0
0
0
0
0
0
0
0
0
0
0
0
0
0
0
0
0
0
0
0
0
0
0
0
0
0
0
0
0
0
0
0
0
0
0
0
0
0
0
0
0
0
0
0
0
0
0
0
0
0
0
SCALARS flag_bitmask int 1
LOOKUP_TABLE default
0
0
0
0
0
0
0
0
0
0
0
0
0
0
0
0
0
0
0
0
0
0
0
0
0
0
0
0
0
0
0
0
0
0
0
0
0
0
0
0
0
0
0
0
0
0
0
0
0
0
0
0
0
0
0
0
0
0
0
0
0
0
0
0
0
0
0
0
0
0
