# vtk DataFile Version 3.0
Mesh2D with Detailed Node Flags
ASCII
DATASET UNSTRUCTURED_GRID
POINTS 138 float
0.001 -0.0065 0.0
0.002 -0.0065 0.0
0.001 -0.0055 0.0
0.002 -0.0055 0.0
0.003 -0.0055 0.0
0.004 -0.0055 0.0
0.001 -0.0045 0.0
0.002 -0.0045 0.0
0.003 -0.0045 0.0
0.004 -0.0045 0.0
0.005 -0.0045 0.0
0.001 -0.0035 0.0
0.002 -0.0035 0.0
0.003 -0.0035 0.0
0.004 -0.0035 0.0
0.005 -0.0035 0.0
0.006 -0.0035 0.0
0.001 -0.0025 0.0
0.002 -0.0025 0.0
0.003 -0.0025 0.0
0.004 -0.0025 0.0
0.005 -0.0025 0.0
0.006 -0.0025 0.0
0.001 -0.0015 0.0
0.002 -0.0015 0.0
0.003 -0.0015 0.0
0.004 -0.0015 0.0
0.005 -0.0015 0.0
0.006 -0.0015 0.0
0.001 -0.0005 0.0
0.002 -0.0005 0.0
0.003 -0.0005 0.0
0.004 -0.0005 0.0
0.005 -0.0005 0.0
0.006 -0.0005 0.0
0.001 0.0005 0.0
0.002 0.0005 0.0
0.003 0.0005 0.0
0.004 0.0005 0.0
0.005 0.0005 0.0
0.006 0.0005 0.0
0.001 0.0015 0.0
0.002 0.0015 0.0
0.003 0.0015 0.0
0.004 0.0015 0.0
0.005 0.0015 0.0
0.006 0.0015 0.0
0.001 0.0025 0.0
0.002 0.0025 0.0
0.003 0.0025 0.0
0.004 0.0025 0.0
0.005 0.0025 0.0
0.006 0.0025 0.0
0.001 0.0035 0.0
0.002 0.0035 0.0
0.003 0.0035 0.0
0.004 0.0035 0.0
0.005 0.0035 0.0
0.006 0.0035 0.0
0.001 0.0045 0.0
0.002 0.0045 0.0
0.003 0.0045 0.0
0.004 0.0045 0.0
0.005 0.0045 0.0
0.001 0.0055 0.0
0.002 0.0055 0.0
0.003 0.0055 0.0
0.004 0.0055 0.0
0.001 0.0065 0.0
0.002 0.0065 0.0
-4.33681e-19 -0.0075 0.0
0.001 -0.00743236 0.0
0.002 -0.00722659 0.0
0.003 -0.00687025 0.0
0.004 -0.00633973 0.0
0.005 -0.00558737 0.0
0.00599724 -0.0045 0.0
0.00662882 -0.0035 0.0
0.0070684 -0.0025 0.0
0.0073473 -0.0015 0.0
0.00748301 -0.0005 0.0
0.00748301 0.0005 0.0
0.0073473 0.0015 0.0
0.0070684 0.0025 0.0
0.00662882 0.0035 0.0
0.00599724 0.0045 0.0
0.005 0.00558737 0.0
0.004 0.00633973 0.0
0.003 0.00687025 0.0
0.002 0.00722659 0.0
0.001 0.00743236 0.0
1.30104e-18 0.0075 0.0
0 0.0065 0.0
0 0.0055 0.0
0 0.0045 0.0
0 0.0035 0.0
0 0.0025 0.0
0 0.0015 0.0
0 0.0005 0.0
0 -0.0005 0.0
0 -0.0015 0.0
0 -0.0025 0.0
0 -0.0035 0.0
0 -0.0045 0.0
0 -0.0055 0.0
0 -0.0065 0.0
0.00233333 -0.00686561 0.0
0.002 -0.00686329 0.0
0.0025 -0.00704842 0.0
0.0025 -0.00668513 0.0
0.00433333 -0.00580903 0.0
0.004 -0.00591987 0.0
0.0045 -0.00596355 0.0
0.0045 -0.00554369 0.0
0.00533241 -0.00486246 0.0
0.005 -0.00504369 0.0
0.00549862 -0.00504369 0.0
0.00549862 -0.0045 0.0
0.00620869 -0.00383333 0.0
0.00599862 -0.004 0.0
0.00631303 -0.004 0.0
0.00631441 -0.0035 0.0
0.00620869 0.00383333 0.0
0.00631441 0.0035 0.0
0.00631303 0.004 0.0
0.00599862 0.004 0.0
0.00533241 0.00486246 0.0
0.00549862 0.0045 0.0
0.00549862 0.00504369 0.0
0.005 0.00504369 0.0
0.00433333 0.00580903 0.0
0.0045 0.00554369 0.0
0.0045 0.00596355 0.0
0.004 0.00591987 0.0
0.00233333 0.00686561 0.0
0.0025 0.00668513 0.0
0.0025 0.00704842 0.0
0.002 0.00686329 0.0
CELLS 107 535
4 0 1 3 2
4 2 3 7 6
4 3 4 8 7
4 4 5 9 8
4 6 7 12 11
4 7 8 13 12
4 8 9 14 13
4 9 10 15 14
4 11 12 18 17
4 12 13 19 18
4 13 14 20 19
4 14 15 21 20
4 15 16 22 21
4 17 18 24 23
4 18 19 25 24
4 19 20 26 25
4 20 21 27 26
4 21 22 28 27
4 23 24 30 29
4 24 25 31 30
4 25 26 32 31
4 26 27 33 32
4 27 28 34 33
4 29 30 36 35
4 30 31 37 36
4 31 32 38 37
4 32 33 39 38
4 33 34 40 39
4 35 36 42 41
4 36 37 43 42
4 37 38 44 43
4 38 39 45 44
4 39 40 46 45
4 41 42 48 47
4 42 43 49 48
4 43 44 50 49
4 44 45 51 50
4 45 46 52 51
4 47 48 54 53
4 48 49 55 54
4 49 50 56 55
4 50 51 57 56
4 51 52 58 57
4 53 54 60 59
4 54 55 61 60
4 55 56 62 61
4 56 57 63 62
4 59 60 65 64
4 60 61 66 65
4 61 62 67 66
4 64 65 69 68
4 2 104 105 0
4 6 103 104 2
4 11 102 103 6
4 17 101 102 11
4 23 100 101 17
4 35 98 99 29
4 41 97 98 35
4 59 94 95 53
4 64 93 94 59
4 29 99 100 23
4 47 96 97 41
4 53 95 96 47
4 68 92 93 64
4 10 76 16 15
4 58 85 63 57
4 68 90 91 92
4 0 105 70 71
4 62 63 86 67
4 9 5 75 10
4 52 46 82 83
4 22 78 79 28
4 1 0 71 72
4 69 89 90 68
4 34 80 81 40
4 28 79 80 34
4 46 40 81 82
4 65 66 88 69
4 3 1 73 4
4 5 4 73 74
4 67 87 88 66
4 16 77 78 22
4 58 52 83 84
4 1 107 106 109
4 72 108 106 107
4 73 109 106 108
4 5 111 110 113
4 74 112 110 111
4 75 113 110 112
4 10 115 114 117
4 75 116 114 115
4 76 117 114 116
4 16 119 118 121
4 76 120 118 119
4 77 121 118 120
4 58 123 122 125
4 84 124 122 123
4 85 125 122 124
4 63 127 126 129
4 85 128 126 127
4 86 129 126 128
4 67 131 130 133
4 86 132 130 131
4 87 133 130 132
4 69 135 134 137
4 88 136 134 135
4 89 137 134 136
CELL_TYPES 107
9
9
9
9
9
9
9
9
9
9
9
9
9
9
9
9
9
9
9
9
9
9
9
9
9
9
9
9
9
9
9
9
9
9
9
9
9
9
9
9
9
9
9
9
9
9
9
9
9
9
9
9
9
9
9
9
9
9
9
9
9
9
9
9
9
9
9
9
9
9
9
9
9
9
9
9
9
9
9
9
9
9
9
9
9
9
9
9
9
9
9
9
9
9
9
9
9
9
9
9
9
9
9
9
9
9
9
POINT_DATA 138
SCALARS flag_int int 1
LOOKUP_TABLE default
8
8
8
8
8
8
8
8
8
8
8
8
8
8
8
8
8
8
8
8
8
8
8
8
8
8
8
8
8
8
8
8
8
8
8
8
8
8
8
8
8
8
8
8
8
8
8
8
8
8
8
8
8
8
8
8
8
8
8
8
8
8
8
8
8
8
8
8
8
8
1
0
0
0
0
0
0
0
0
0
0
0
0
0
0
0
0
0
0
0
0
1
0
0
0
0
0
0
0
0
0
0
0
0
0
0
7
5
5
5
7
5
5
5
7
5
5
5
7
5
5
5
7
5
5
5
7
5
5
5
7
5
5
5
7
5
5
5
SCALARS flag_category int 1
LOOKUP_TABLE default
0
0
0
0
0
0
0
0
0
0
0
0
0
0
0
0
0
0
0
0
0
0
0
0
0
0
0
0
0
0
0
0
0
0
0
0
0
0
0
0
0
0
0
0
0
0
0
0
0
0
0
0
0
0
0
0
0
0
0
0
0
0
0
0
0
0
0
0
0
0
3
2
2
2
2
2
2
2
2
2
2
2
2
2
2
2
2
2
2
2
2
3
2
2
2
2
2
2
2
2
2
2
2
2
2
2
4
4
4
4
4
4
4
4
4
4
4
4
4
4
4
4
4
4
4
4
4
4
4
4
4
4
4
4
4
4
4
4
SCALARS is_boundary int 1
LOOKUP_TABLE default
0
0
0
0
0
0
0
0
0
0
0
0
0
0
0
0
0
0
0
0
0
0
0
0
0
0
0
0
0
0
0
0
0
0
0
0
0
0
0
0
0
0
0
0
0
0
0
0
0
0
0
0
0
0
0
0
0
0
0
0
0
0
0
0
0
0
0
0
0
0
0
0
0
0
0
0
0
0
0
0
0
0
0
0
0
0
0
0
0
0
0
0
0
0
0
0
0
0
0
0
0
0
0
0
0
0
0
0
0
0
0
0
0
0
0
0
0
0
0
0
0
0
0
0
0
0
0
0
0
0
0
0
0
0
0
0
0
0
SCALARS is_constrained int 1
LOOKUP_TABLE default
0
0
0
0
0
0
0
0
0
0
0
0
0
0
0
0
0
0
0
0
0
0
0
0
0
0
0
0
0
0
0
0
0
0
0
0
0
0
0
0
0
0
0
0
0
0
0
0
0
0
0
0
0
0
0
0
0
0
0
0
0
0
0
0
0
0
0
0
0
0
0
0
0
0
0
0
0
0
0
0
0
0
0
0
0
0
0
0
0
0
0
0
0
0
0
0
0
0
0
0
0
0
0
0
0
0
0
0
0
0
0
0
0
0
0
0
0
0
0
0
0
0
0
0
0
0
0
0
0
0
0
0
0
0
0
0
0
0
SCALARS flag_bitmask int 1
LOOKUP_TABLE default
0
0
0
0
0
0
0
0
0
0
0
0
0
0
0
0
0
0
0
0
0
0
0
0
0
0
0
0
0
0
0
0
0
0
0
0
0
0
0
0
0
0
0
0
0
0
0
0
0
0
0
0
0
0
0
0
0
0
0
0
0
0
0
0
0
0
0
0
0
0
1
0
0
0
0
0
0
0
0
0
0
0
0
0
0
0
0
0
0
0
0
1
0
0
0
0
0
0
0
0
0
0
0
0
0
0
7
5
5
5
7
5
5
5
7
5
5
5
7
5
5
5
7
5
5
5
7
5
5
5
7
5
5
5
7
5
5
5
