# vtk DataFile Version 3.0
SubdivisionResult quads
ASCII
DATASET UNSTRUCTURED_GRID
POINTS 161 float
0.000868681 -0.00635036 0.0
0.00193802 -0.00646411 0.0
0.00107869 -0.00556787 0.0
0.00200557 -0.00547432 0.0
0.00294798 -0.00576173 0.0
0.00380379 -0.00543087 0.0
0.00102747 -0.00453378 0.0
0.00200975 -0.00453357 0.0
0.00300186 -0.00461875 0.0
0.00401288 -0.00459084 0.0
0.00482536 -0.00437906 0.0
0.00101196 -0.0035171 0.0
0.00201814 -0.00353902 0.0
0.00301727 -0.00355821 0.0
0.00403359 -0.00357106 0.0
0.00502913 -0.00356042 0.0
0.00580839 -0.00336739 0.0
0.00101162 -0.00251397 0.0
0.00201885 -0.00252065 0.0
0.0030374 -0.00254199 0.0
0.00405474 -0.00254241 0.0
0.00508726 -0.00256133 0.0
0.00611513 -0.00258914 0.0
0.00101025 -0.00150529 0.0
0.00202641 -0.00151643 0.0
0.00304584 -0.00151742 0.0
0.00408556 -0.00153027 0.0
0.00513777 -0.00152864 0.0
0.00622332 -0.00153436 0.0
0.00101199 -0.000503903 0.0
0.00202741 -0.000503389 0.0
0.00305594 -0.000510991 0.0
0.00409959 -0.000506945 0.0
0.00517433 -0.000513177 0.0
0.0062908 -0.000507474 0.0
0.00101196 0.000501206 0.0
0.00202865 0.000498896 0.0
0.00305583 0.000504025 0.0
0.00410055 0.000501185 0.0
0.0051741 0.000508716 0.0
0.00629106 0.000505645 0.0
0.00101201 0.00150168 0.0
0.00202787 0.00150653 0.0
0.00304889 0.00150629 0.0
0.00408601 0.00151783 0.0
0.00513882 0.00152214 0.0
0.00622324 0.00153085 0.0
0.00101368 0.00250468 0.0
0.00202567 0.0025052 0.0
0.00304113 0.00251219 0.0
0.00405818 0.00252018 0.0
0.00508736 0.00254627 0.0
0.00611563 0.0025846 0.0
0.00101757 0.00350471 0.0
0.00203014 0.00350684 0.0
0.00302958 0.00349732 0.0
0.0040353 0.00351991 0.0
0.00503052 0.00353844 0.0
0.0058081 0.00335802 0.0
0.00102969 0.00451073 0.0
0.00204569 0.004506 0.0
0.00302249 0.00446101 0.0
0.00401375 0.00450109 0.0
0.00482362 0.00433941 0.0
0.00105539 0.00552573 0.0
0.00210288 0.00554939 0.0
0.0029955 0.00532134 0.0
0.00378272 0.00526253 0.0
0.00108784 0.00654289 0.0
0.0018835 0.00635621 0.0
-4.33681e-19 -0.0075 0.0
0.001 -0.00743236 0.0
0.002 -0.00722659 0.0
0.003 -0.00687025 0.0
0.004 -0.00633973 0.0
0.005 -0.00558737 0.0
0.00599724 -0.0045 0.0
0.00662882 -0.0035 0.0
0.0070684 -0.0025 0.0
0.0073473 -0.0015 0.0
0.00748301 -0.0005 0.0
0.00748301 0.0005 0.0
0.0073473 0.0015 0.0
0.0070684 0.0025 0.0
0.00662882 0.0035 0.0
0.00599724 0.0045 0.0
0.005 0.00558737 0.0
0.004 0.00633973 0.0
0.003 0.00687025 0.0
0.002 0.00722659 0.0
0.001 0.00743236 0.0
1.30104e-18 0.0075 0.0
0 0.0065 0.0
0 0.0055 0.0
0 0.0045 0.0
0 0.0035 0.0
0 0.0025 0.0
0 0.0015 0.0
0 0.0005 0.0
0 -0.0005 0.0
0 -0.0015 0.0
0 -0.0025 0.0
0 -0.0035 0.0
0 -0.0045 0.0
0 -0.0055 0.0
0 -0.0065 0.0
0.00227865 -0.00682162 0.0
0.00191676 -0.00684435 0.0
0.0025 -0.00704842 0.0
0.00241519 -0.00656449 0.0
0.00424818 -0.00577339 0.0
0.00387213 -0.00590598 0.0
0.0045 -0.00596355 0.0
0.00436641 -0.00544245 0.0
0.00524894 -0.00479771 0.0
0.00487145 -0.00493541 0.0
0.00549862 -0.00504369 0.0
0.00536911 -0.00440471 0.0
0.00613164 -0.00376968 0.0
0.00583573 -0.00389573 0.0
0.00631303 -0.004 0.0
0.00624105 -0.00340712 0.0
0.00613147 0.00376673 0.0
0.00624126 0.00340439 0.0
0.00631303 0.004 0.0
0.00583602 0.00389048 0.0
0.00524757 0.00478348 0.0
0.00536916 0.00439002 0.0
0.00549862 0.00504369 0.0
0.00486997 0.00490948 0.0
0.00420604 0.00572724 0.0
0.00435019 0.00537678 0.0
0.0045 0.00596355 0.0
0.00376581 0.00583582 0.0
0.00228068 0.00679357 0.0
0.00242428 0.00651243 0.0
0.0025 0.00704842 0.0
0.00191606 0.00681895 0.0
0.00143856 -0.0064191 0.0
0.00197076 -0.00600821 0.0
0.00149917 -0.00600426 0.0
0.00541533 -0.00395874 0.0
0.00541469 0.00394376 0.0
0.0005 -0.00746618 0.0
0.000950995 -0.00690223 0.0
0.000484011 -0.00695682 0.0
0.00441347 0.00493326 0.0
0.00442132 -0.00499542 0.0
0.0015 -0.00732948 0.0
0.00145294 -0.00687644 0.0
0.0015 0.00732948 0.0
0.00150174 0.00689735 0.0
0.00307423 0.00601542 0.0
0.00253453 0.00602586 0.0
0.00244804 -0.00611739 0.0
0.0035 -0.00660499 0.0
0.00344218 -0.00609414 0.0
0.00684861 -0.003 0.0
0.00640302 -0.00300086 0.0
0.00684861 0.003 0.0
0.00640291 0.00299814 0.0
CELLS 135 675
4 0 138 140 2
4 138 1 139 140
4 2 140 139 3
4 2 3 7 6
4 3 4 8 7
4 4 5 9 8
4 6 7 12 11
4 7 8 13 12
4 8 9 14 13
4 9 10 15 14
4 11 12 18 17
4 12 13 19 18
4 13 14 20 19
4 14 15 21 20
4 15 16 22 21
4 17 18 24 23
4 18 19 25 24
4 19 20 26 25
4 20 21 27 26
4 21 22 28 27
4 23 24 30 29
4 24 25 31 30
4 25 26 32 31
4 26 27 33 32
4 27 28 34 33
4 29 30 36 35
4 30 31 37 36
4 31 32 38 37
4 32 33 39 38
4 33 34 40 39
4 35 36 42 41
4 36 37 43 42
4 37 38 44 43
4 38 39 45 44
4 39 40 46 45
4 41 42 48 47
4 42 43 49 48
4 43 44 50 49
4 44 45 51 50
4 45 46 52 51
4 47 48 54 53
4 48 49 55 54
4 49 50 56 55
4 50 51 57 56
4 51 52 58 57
4 53 54 60 59
4 54 55 61 60
4 55 56 62 61
4 56 57 63 62
4 59 60 65 64
4 60 61 66 65
4 61 62 67 66
4 64 65 69 68
4 2 104 105 0
4 6 103 104 2
4 11 102 103 6
4 17 101 102 11
4 23 100 101 17
4 35 98 99 29
4 41 97 98 35
4 59 94 95 53
4 64 93 94 59
4 29 99 100 23
4 47 96 97 41
4 53 95 96 47
4 68 92 93 64
4 10 117 141 15
4 117 76 119 141
4 15 141 119 16
4 58 125 142 57
4 125 85 127 142
4 57 142 127 63
4 68 90 91 92
4 70 143 145 105
4 143 71 144 145
4 105 145 144 0
4 63 129 146 62
4 129 86 131 146
4 62 146 131 67
4 5 113 147 9
4 113 75 115 147
4 9 147 115 10
4 52 46 82 83
4 22 78 79 28
4 1 138 149 107
4 138 0 144 149
4 149 144 71 148
4 107 149 148 72
4 69 137 151 68
4 137 89 150 151
4 68 151 150 90
4 34 80 81 40
4 28 79 80 34
4 46 40 81 82
4 66 152 153 65
4 152 88 135 153
4 65 153 135 69
4 3 139 154 4
4 139 1 109 154
4 4 154 109 73
4 73 155 156 4
4 155 74 111 156
4 4 156 111 5
4 67 133 152 66
4 133 87 88 152
4 16 121 158 22
4 121 77 157 158
4 22 158 157 78
4 83 159 160 52
4 159 84 123 160
4 52 160 123 58
4 1 107 106 109
4 72 108 106 107
4 73 109 106 108
4 5 111 110 113
4 74 112 110 111
4 75 113 110 112
4 10 115 114 117
4 75 116 114 115
4 76 117 114 116
4 16 119 118 121
4 76 120 118 119
4 77 121 118 120
4 58 123 122 125
4 84 124 122 123
4 85 125 122 124
4 63 127 126 129
4 85 128 126 127
4 86 129 126 128
4 67 131 130 133
4 86 132 130 131
4 87 133 130 132
4 69 135 134 137
4 88 136 134 135
4 89 137 134 136
CELL_TYPES 135
9
9
9
9
9
9
9
9
9
9
9
9
9
9
9
9
9
9
9
9
9
9
9
9
9
9
9
9
9
9
9
9
9
9
9
9
9
9
9
9
9
9
9
9
9
9
9
9
9
9
9
9
9
9
9
9
9
9
9
9
9
9
9
9
9
9
9
9
9
9
9
9
9
9
9
9
9
9
9
9
9
9
9
9
9
9
9
9
9
9
9
9
9
9
9
9
9
9
9
9
9
9
9
9
9
9
9
9
9
9
9
9
9
9
9
9
9
9
9
9
9
9
9
9
9
9
9
9
9
9
9
9
9
9
9
POINT_DATA 161
SCALARS node_flags int 1
LOOKUP_TABLE default
8
8
8
8
8
8
8
8
8
8
8
8
8
8
8
8
8
8
8
8
8
8
8
8
8
8
8
8
8
8
8
8
8
8
8
8
8
8
8
8
8
8
8
8
8
8
8
8
8
8
8
8
8
8
8
8
8
8
8
8
8
8
8
8
8
8
8
8
8
8
8
8
8
8
8
8
8
8
8
8
8
8
8
8
8
8
8
8
8
8
8
8
8
8
8
8
8
8
8
8
8
8
8
8
8
8
8
8
8
8
8
8
8
8
8
8
8
8
8
8
8
8
8
8
8
8
8
8
8
8
8
8
8
8
8
8
8
8
8
8
8
8
8
8
8
8
8
8
8
8
8
8
8
8
8
8
8
8
8
8
8
