# vtk DataFile Version 3.0
Mesh2D with Detailed Node Flags
ASCII
DATASET UNSTRUCTURED_GRID
POINTS 240 float
-0.002 -0.0095 0.0
-0.001 -0.0095 0.0
-4.33681e-19 -0.0095 0.0
0.001 -0.0095 0.0
0.002 -0.0095 0.0
0.003 -0.0095 0.0
0.004 -0.0095 0.0
0.005 -0.0095 0.0
0.006 -0.0095 0.0
0.007 -0.0095 0.0
0.008 -0.0095 0.0
0.009 -0.0095 0.0
-0.002 -0.0085 0.0
-0.001 -0.0085 0.0
-4.33681e-19 -0.0085 0.0
0.001 -0.0085 0.0
0.002 -0.0085 0.0
0.003 -0.0085 0.0
0.004 -0.0085 0.0
0.005 -0.0085 0.0
0.006 -0.0085 0.0
0.007 -0.0085 0.0
0.008 -0.0085 0.0
0.009 -0.0085 0.0
-0.002 -0.0075 0.0
-0.001 -0.0075 0.0
-4.33681e-19 -0.0075 0.0
0.001 -0.0075 0.0
0.002 -0.0075 0.0
0.003 -0.0075 0.0
0.004 -0.0075 0.0
0.005 -0.0075 0.0
0.006 -0.0075 0.0
0.007 -0.0075 0.0
0.008 -0.0075 0.0
0.009 -0.0075 0.0
-0.002 -0.0065 0.0
-0.001 -0.0065 0.0
-4.33681e-19 -0.0065 0.0
0.001 -0.0065 0.0
0.002 -0.0065 0.0
0.003 -0.0065 0.0
0.004 -0.0065 0.0
0.005 -0.0065 0.0
0.006 -0.0065 0.0
0.007 -0.0065 0.0
0.008 -0.0065 0.0
0.009 -0.0065 0.0
-0.002 -0.0055 0.0
-0.001 -0.0055 0.0
-4.33681e-19 -0.0055 0.0
0.001 -0.0055 0.0
0.002 -0.0055 0.0
0.003 -0.0055 0.0
0.004 -0.0055 0.0
0.005 -0.0055 0.0
0.006 -0.0055 0.0
0.007 -0.0055 0.0
0.008 -0.0055 0.0
0.009 -0.0055 0.0
-0.002 -0.0045 0.0
-0.001 -0.0045 0.0
-4.33681e-19 -0.0045 0.0
0.001 -0.0045 0.0
0.002 -0.0045 0.0
0.003 -0.0045 0.0
0.004 -0.0045 0.0
0.005 -0.0045 0.0
0.006 -0.0045 0.0
0.007 -0.0045 0.0
0.008 -0.0045 0.0
0.009 -0.0045 0.0
-0.002 -0.0035 0.0
-0.001 -0.0035 0.0
-4.33681e-19 -0.0035 0.0
0.001 -0.0035 0.0
0.002 -0.0035 0.0
0.003 -0.0035 0.0
0.004 -0.0035 0.0
0.005 -0.0035 0.0
0.006 -0.0035 0.0
0.007 -0.0035 0.0
0.008 -0.0035 0.0
0.009 -0.0035 0.0
-0.002 -0.0025 0.0
-0.001 -0.0025 0.0
-4.33681e-19 -0.0025 0.0
0.001 -0.0025 0.0
0.002 -0.0025 0.0
0.003 -0.0025 0.0
0.004 -0.0025 0.0
0.005 -0.0025 0.0
0.006 -0.0025 0.0
0.007 -0.0025 0.0
0.008 -0.0025 0.0
0.009 -0.0025 0.0
-0.002 -0.0015 0.0
-0.001 -0.0015 0.0
-4.33681e-19 -0.0015 0.0
0.001 -0.0015 0.0
0.002 -0.0015 0.0
0.003 -0.0015 0.0
0.004 -0.0015 0.0
0.005 -0.0015 0.0
0.006 -0.0015 0.0
0.007 -0.0015 0.0
0.008 -0.0015 0.0
0.009 -0.0015 0.0
-0.002 -0.0005 0.0
-0.001 -0.0005 0.0
-4.33681e-19 -0.0005 0.0
0.001 -0.0005 0.0
0.002 -0.0005 0.0
0.003 -0.0005 0.0
0.004 -0.0005 0.0
0.005 -0.0005 0.0
0.006 -0.0005 0.0
0.007 -0.0005 0.0
0.008 -0.0005 0.0
0.009 -0.0005 0.0
-0.002 0.0005 0.0
-0.001 0.0005 0.0
-4.33681e-19 0.0005 0.0
0.001 0.0005 0.0
0.002 0.0005 0.0
0.003 0.0005 0.0
0.004 0.0005 0.0
0.005 0.0005 0.0
0.006 0.0005 0.0
0.007 0.0005 0.0
0.008 0.0005 0.0
0.009 0.0005 0.0
-0.002 0.0015 0.0
-0.001 0.0015 0.0
-4.33681e-19 0.0015 0.0
0.001 0.0015 0.0
0.002 0.0015 0.0
0.003 0.0015 0.0
0.004 0.0015 0.0
0.005 0.0015 0.0
0.006 0.0015 0.0
0.007 0.0015 0.0
0.008 0.0015 0.0
0.009 0.0015 0.0
-0.002 0.0025 0.0
-0.001 0.0025 0.0
-4.33681e-19 0.0025 0.0
0.001 0.0025 0.0
0.002 0.0025 0.0
0.003 0.0025 0.0
0.004 0.0025 0.0
0.005 0.0025 0.0
0.006 0.0025 0.0
0.007 0.0025 0.0
0.008 0.0025 0.0
0.009 0.0025 0.0
-0.002 0.0035 0.0
-0.001 0.0035 0.0
-4.33681e-19 0.0035 0.0
0.001 0.0035 0.0
0.002 0.0035 0.0
0.003 0.0035 0.0
0.004 0.0035 0.0
0.005 0.0035 0.0
0.006 0.0035 0.0
0.007 0.0035 0.0
0.008 0.0035 0.0
0.009 0.0035 0.0
-0.002 0.0045 0.0
-0.001 0.0045 0.0
-4.33681e-19 0.0045 0.0
0.001 0.0045 0.0
0.002 0.0045 0.0
0.003 0.0045 0.0
0.004 0.0045 0.0
0.005 0.0045 0.0
0.006 0.0045 0.0
0.007 0.0045 0.0
0.008 0.0045 0.0
0.009 0.0045 0.0
-0.002 0.0055 0.0
-0.001 0.0055 0.0
-4.33681e-19 0.0055 0.0
0.001 0.0055 0.0
0.002 0.0055 0.0
0.003 0.0055 0.0
0.004 0.0055 0.0
0.005 0.0055 0.0
0.006 0.0055 0.0
0.007 0.0055 0.0
0.008 0.0055 0.0
0.009 0.0055 0.0
-0.002 0.0065 0.0
-0.001 0.0065 0.0
-4.33681e-19 0.0065 0.0
0.001 0.0065 0.0
0.002 0.0065 0.0
0.003 0.0065 0.0
0.004 0.0065 0.0
0.005 0.0065 0.0
0.006 0.0065 0.0
0.007 0.0065 0.0
0.008 0.0065 0.0
0.009 0.0065 0.0
-0.002 0.0075 0.0
-0.001 0.0075 0.0
-4.33681e-19 0.0075 0.0
0.001 0.0075 0.0
0.002 0.0075 0.0
0.003 0.0075 0.0
0.004 0.0075 0.0
0.005 0.0075 0.0
0.006 0.0075 0.0
0.007 0.0075 0.0
0.008 0.0075 0.0
0.009 0.0075 0.0
-0.002 0.0085 0.0
-0.001 0.0085 0.0
-4.33681e-19 0.0085 0.0
0.001 0.0085 0.0
0.002 0.0085 0.0
0.003 0.0085 0.0
0.004 0.0085 0.0
0.005 0.0085 0.0
0.006 0.0085 0.0
0.007 0.0085 0.0
0.008 0.0085 0.0
0.009 0.0085 0.0
-0.002 0.0095 0.0
-0.001 0.0095 0.0
-4.33681e-19 0.0095 0.0
0.001 0.0095 0.0
0.002 0.0095 0.0
0.003 0.0095 0.0
0.004 0.0095 0.0
0.005 0.0095 0.0
0.006 0.0095 0.0
0.007 0.0095 0.0
0.008 0.0095 0.0
0.009 0.0095 0.0
CELLS 209 1045
4 0 1 13 12
4 1 2 14 13
4 2 3 15 14
4 3 4 16 15
4 4 5 17 16
4 5 6 18 17
4 6 7 19 18
4 7 8 20 19
4 8 9 21 20
4 9 10 22 21
4 10 11 23 22
4 12 13 25 24
4 13 14 26 25
4 14 15 27 26
4 15 16 28 27
4 16 17 29 28
4 17 18 30 29
4 18 19 31 30
4 19 20 32 31
4 20 21 33 32
4 21 22 34 33
4 22 23 35 34
4 24 25 37 36
4 25 26 38 37
4 26 27 39 38
4 27 28 40 39
4 28 29 41 40
4 29 30 42 41
4 30 31 43 42
4 31 32 44 43
4 32 33 45 44
4 33 34 46 45
4 34 35 47 46
4 36 37 49 48
4 37 38 50 49
4 38 39 51 50
4 39 40 52 51
4 40 41 53 52
4 41 42 54 53
4 42 43 55 54
4 43 44 56 55
4 44 45 57 56
4 45 46 58 57
4 46 47 59 58
4 48 49 61 60
4 49 50 62 61
4 50 51 63 62
4 51 52 64 63
4 52 53 65 64
4 53 54 66 65
4 54 55 67 66
4 55 56 68 67
4 56 57 69 68
4 57 58 70 69
4 58 59 71 70
4 60 61 73 72
4 61 62 74 73
4 62 63 75 74
4 63 64 76 75
4 64 65 77 76
4 65 66 78 77
4 66 67 79 78
4 67 68 80 79
4 68 69 81 80
4 69 70 82 81
4 70 71 83 82
4 72 73 85 84
4 73 74 86 85
4 74 75 87 86
4 75 76 88 87
4 76 77 89 88
4 77 78 90 89
4 78 79 91 90
4 79 80 92 91
4 80 81 93 92
4 81 82 94 93
4 82 83 95 94
4 84 85 97 96
4 85 86 98 97
4 86 87 99 98
4 87 88 100 99
4 88 89 101 100
4 89 90 102 101
4 90 91 103 102
4 91 92 104 103
4 92 93 105 104
4 93 94 106 105
4 94 95 107 106
4 96 97 109 108
4 97 98 110 109
4 98 99 111 110
4 99 100 112 111
4 100 101 113 112
4 101 102 114 113
4 102 103 115 114
4 103 104 116 115
4 104 105 117 116
4 105 106 118 117
4 106 107 119 118
4 108 109 121 120
4 109 110 122 121
4 110 111 123 122
4 111 112 124 123
4 112 113 125 124
4 113 114 126 125
4 114 115 127 126
4 115 116 128 127
4 116 117 129 128
4 117 118 130 129
4 118 119 131 130
4 120 121 133 132
4 121 122 134 133
4 122 123 135 134
4 123 124 136 135
4 124 125 137 136
4 125 126 138 137
4 126 127 139 138
4 127 128 140 139
4 128 129 141 140
4 129 130 142 141
4 130 131 143 142
4 132 133 145 144
4 133 134 146 145
4 134 135 147 146
4 135 136 148 147
4 136 137 149 148
4 137 138 150 149
4 138 139 151 150
4 139 140 152 151
4 140 141 153 152
4 141 142 154 153
4 142 143 155 154
4 144 145 157 156
4 145 146 158 157
4 146 147 159 158
4 147 148 160 159
4 148 149 161 160
4 149 150 162 161
4 150 151 163 162
4 151 152 164 163
4 152 153 165 164
4 153 154 166 165
4 154 155 167 166
4 156 157 169 168
4 157 158 170 169
4 158 159 171 170
4 159 160 172 171
4 160 161 173 172
4 161 162 174 173
4 162 163 175 174
4 163 164 176 175
4 164 165 177 176
4 165 166 178 177
4 166 167 179 178
4 168 169 181 180
4 169 170 182 181
4 170 171 183 182
4 171 172 184 183
4 172 173 185 184
4 173 174 186 185
4 174 175 187 186
4 175 176 188 187
4 176 177 189 188
4 177 178 190 189
4 178 179 191 190
4 180 181 193 192
4 181 182 194 193
4 182 183 195 194
4 183 184 196 195
4 184 185 197 196
4 185 186 198 197
4 186 187 199 198
4 187 188 200 199
4 188 189 201 200
4 189 190 202 201
4 190 191 203 202
4 192 193 205 204
4 193 194 206 205
4 194 195 207 206
4 195 196 208 207
4 196 197 209 208
4 197 198 210 209
4 198 199 211 210
4 199 200 212 211
4 200 201 213 212
4 201 202 214 213
4 202 203 215 214
4 204 205 217 216
4 205 206 218 217
4 206 207 219 218
4 207 208 220 219
4 208 209 221 220
4 209 210 222 221
4 210 211 223 222
4 211 212 224 223
4 212 213 225 224
4 213 214 226 225
4 214 215 227 226
4 216 217 229 228
4 217 218 230 229
4 218 219 231 230
4 219 220 232 231
4 220 221 233 232
4 221 222 234 233
4 222 223 235 234
4 223 224 236 235
4 224 225 237 236
4 225 226 238 237
4 226 227 239 238
CELL_TYPES 209
9
9
9
9
9
9
9
9
9
9
9
9
9
9
9
9
9
9
9
9
9
9
9
9
9
9
9
9
9
9
9
9
9
9
9
9
9
9
9
9
9
9
9
9
9
9
9
9
9
9
9
9
9
9
9
9
9
9
9
9
9
9
9
9
9
9
9
9
9
9
9
9
9
9
9
9
9
9
9
9
9
9
9
9
9
9
9
9
9
9
9
9
9
9
9
9
9
9
9
9
9
9
9
9
9
9
9
9
9
9
9
9
9
9
9
9
9
9
9
9
9
9
9
9
9
9
9
9
9
9
9
9
9
9
9
9
9
9
9
9
9
9
9
9
9
9
9
9
9
9
9
9
9
9
9
9
9
9
9
9
9
9
9
9
9
9
9
9
9
9
9
9
9
9
9
9
9
9
9
9
9
9
9
9
9
9
9
9
9
9
9
9
9
9
9
9
9
9
9
9
9
9
9
9
9
9
9
9
9
POINT_DATA 240
SCALARS flag_int int 1
LOOKUP_TABLE default
8
8
8
8
8
8
8
8
8
8
8
8
8
8
8
8
8
8
8
8
8
8
8
8
8
8
8
8
8
8
8
8
8
8
8
8
8
8
8
8
8
8
8
8
8
8
8
8
8
8
8
8
8
8
8
8
8
8
8
8
8
8
8
8
8
8
8
8
8
8
8
8
8
8
8
8
8
8
8
8
8
8
8
8
8
8
8
8
8
8
8
8
8
8
8
8
8
8
8
8
8
8
8
8
8
8
8
8
8
8
8
8
8
8
8
8
8
8
8
8
8
8
8
8
8
8
8
8
8
8
8
8
8
8
8
8
8
8
8
8
8
8
8
8
8
8
8
8
8
8
8
8
8
8
8
8
8
8
8
8
8
8
8
8
8
8
8
8
8
8
8
8
8
8
8
8
8
8
8
8
8
8
8
8
8
8
8
8
8
8
8
8
8
8
8
8
8
8
8
8
8
8
8
8
8
8
8
8
8
8
8
8
8
8
8
8
8
8
8
8
8
8
8
8
8
8
8
8
8
8
8
8
8
8
8
8
8
8
8
8
SCALARS flag_category int 1
LOOKUP_TABLE default
0
0
0
0
0
0
0
0
0
0
0
0
0
0
0
0
0
0
0
0
0
0
0
0
0
0
0
0
0
0
0
0
0
0
0
0
0
0
0
0
0
0
0
0
0
0
0
0
0
0
0
0
0
0
0
0
0
0
0
0
0
0
0
0
0
0
0
0
0
0
0
0
0
0
0
0
0
0
0
0
0
0
0
0
0
0
0
0
0
0
0
0
0
0
0
0
0
0
0
0
0
0
0
0
0
0
0
0
0
0
0
0
0
0
0
0
0
0
0
0
0
0
0
0
0
0
0
0
0
0
0
0
0
0
0
0
0
0
0
0
0
0
0
0
0
0
0
0
0
0
0
0
0
0
0
0
0
0
0
0
0
0
0
0
0
0
0
0
0
0
0
0
0
0
0
0
0
0
0
0
0
0
0
0
0
0
0
0
0
0
0
0
0
0
0
0
0
0
0
0
0
0
0
0
0
0
0
0
0
0
0
0
0
0
0
0
0
0
0
0
0
0
0
0
0
0
0
0
0
0
0
0
0
0
0
0
0
0
0
0
SCALARS is_boundary int 1
LOOKUP_TABLE default
0
0
0
0
0
0
0
0
0
0
0
0
0
0
0
0
0
0
0
0
0
0
0
0
0
0
0
0
0
0
0
0
0
0
0
0
0
0
0
0
0
0
0
0
0
0
0
0
0
0
0
0
0
0
0
0
0
0
0
0
0
0
0
0
0
0
0
0
0
0
0
0
0
0
0
0
0
0
0
0
0
0
0
0
0
0
0
0
0
0
0
0
0
0
0
0
0
0
0
0
0
0
0
0
0
0
0
0
0
0
0
0
0
0
0
0
0
0
0
0
0
0
0
0
0
0
0
0
0
0
0
0
0
0
0
0
0
0
0
0
0
0
0
0
0
0
0
0
0
0
0
0
0
0
0
0
0
0
0
0
0
0
0
0
0
0
0
0
0
0
0
0
0
0
0
0
0
0
0
0
0
0
0
0
0
0
0
0
0
0
0
0
0
0
0
0
0
0
0
0
0
0
0
0
0
0
0
0
0
0
0
0
0
0
0
0
0
0
0
0
0
0
0
0
0
0
0
0
0
0
0
0
0
0
0
0
0
0
0
0
SCALARS is_constrained int 1
LOOKUP_TABLE default
0
0
0
0
0
0
0
0
0
0
0
0
0
0
0
0
0
0
0
0
0
0
0
0
0
0
0
0
0
0
0
0
0
0
0
0
0
0
0
0
0
0
0
0
0
0
0
0
0
0
0
0
0
0
0
0
0
0
0
0
0
0
0
0
0
0
0
0
0
0
0
0
0
0
0
0
0
0
0
0
0
0
0
0
0
0
0
0
0
0
0
0
0
0
0
0
0
0
0
0
0
0
0
0
0
0
0
0
0
0
0
0
0
0
0
0
0
0
0
0
0
0
0
0
0
0
0
0
0
0
0
0
0
0
0
0
0
0
0
0
0
0
0
0
0
0
0
0
0
0
0
0
0
0
0
0
0
0
0
0
0
0
0
0
0
0
0
0
0
0
0
0
0
0
0
0
0
0
0
0
0
0
0
0
0
0
0
0
0
0
0
0
0
0
0
0
0
0
0
0
0
0
0
0
0
0
0
0
0
0
0
0
0
0
0
0
0
0
0
0
0
0
0
0
0
0
0
0
0
0
0
0
0
0
0
0
0
0
0
0
SCALARS flag_bitmask int 1
LOOKUP_TABLE default
0
0
0
0
0
0
0
0
0
0
0
0
0
0
0
0
0
0
0
0
0
0
0
0
0
0
0
0
0
0
0
0
0
0
0
0
0
0
0
0
0
0
0
0
0
0
0
0
0
0
0
0
0
0
0
0
0
0
0
0
0
0
0
0
0
0
0
0
0
0
0
0
0
0
0
0
0
0
0
0
0
0
0
0
0
0
0
0
0
0
0
0
0
0
0
0
0
0
0
0
0
0
0
0
0
0
0
0
0
0
0
0
0
0
0
0
0
0
0
0
0
0
0
0
0
0
0
0
0
0
0
0
0
0
0
0
0
0
0
0
0
0
0
0
0
0
0
0
0
0
0
0
0
0
0
0
0
0
0
0
0
0
0
0
0
0
0
0
0
0
0
0
0
0
0
0
0
0
0
0
0
0
0
0
0
0
0
0
0
0
0
0
0
0
0
0
0
0
0
0
0
0
0
0
0
0
0
0
0
0
0
0
0
0
0
0
0
0
0
0
0
0
0
0
0
0
0
0
0
0
0
0
0
0
0
0
0
0
0
0
