# vtk DataFile Version 3.0
VTK Example
ASCII
DATASET UNSTRUCTURED_GRID
POINTS 1045 float 
1.2700e-02 0.0000e+00 3.0000e-02
1.2700e-02 0.0000e+00 0.0000e+00
1.2270e-02 3.2870e-03 3.0000e-02
1.1000e-02 6.3500e-03 3.0000e-02
8.9800e-03 8.9800e-03 3.0000e-02
6.3500e-03 1.1000e-02 3.0000e-02
3.2870e-03 1.2270e-02 3.0000e-02
0.0000e+00 1.2700e-02 3.0000e-02
-3.2870e-03 1.2270e-02 3.0000e-02
-6.3500e-03 1.1000e-02 3.0000e-02
-8.9800e-03 8.9800e-03 3.0000e-02
-1.1000e-02 6.3500e-03 3.0000e-02
-1.2270e-02 3.2870e-03 3.0000e-02
-1.2700e-02 0.0000e+00 3.0000e-02
-1.2270e-02 -3.2870e-03 3.0000e-02
-1.1000e-02 -6.3500e-03 3.0000e-02
-8.9800e-03 -8.9800e-03 3.0000e-02
-6.3500e-03 -1.1000e-02 3.0000e-02
-3.2870e-03 -1.2270e-02 3.0000e-02
0.0000e+00 -1.2700e-02 3.0000e-02
3.2870e-03 -1.2270e-02 3.0000e-02
6.3500e-03 -1.1000e-02 3.0000e-02
8.9800e-03 -8.9800e-03 3.0000e-02
1.1000e-02 -6.3500e-03 3.0000e-02
1.2270e-02 -3.2870e-03 3.0000e-02
1.2700e-02 0.0000e+00 1.4290e-03
1.2700e-02 0.0000e+00 2.8570e-03
1.2700e-02 0.0000e+00 4.2860e-03
1.2700e-02 0.0000e+00 5.7140e-03
1.2700e-02 0.0000e+00 7.1430e-03
1.2700e-02 0.0000e+00 8.5710e-03
1.2700e-02 0.0000e+00 1.0000e-02
1.2700e-02 0.0000e+00 1.1430e-02
1.2700e-02 0.0000e+00 1.2860e-02
1.2700e-02 0.0000e+00 1.4290e-02
1.2700e-02 0.0000e+00 1.5710e-02
1.2700e-02 0.0000e+00 1.7140e-02
1.2700e-02 0.0000e+00 1.8570e-02
1.2700e-02 0.0000e+00 2.0000e-02
1.2700e-02 0.0000e+00 2.1430e-02
1.2700e-02 0.0000e+00 2.2860e-02
1.2700e-02 0.0000e+00 2.4290e-02
1.2700e-02 0.0000e+00 2.5710e-02
1.2700e-02 0.0000e+00 2.7140e-02
1.2700e-02 0.0000e+00 2.8570e-02
1.2270e-02 3.2870e-03 0.0000e+00
1.1000e-02 6.3500e-03 0.0000e+00
8.9800e-03 8.9800e-03 0.0000e+00
6.3500e-03 1.1000e-02 0.0000e+00
3.2870e-03 1.2270e-02 0.0000e+00
0.0000e+00 1.2700e-02 0.0000e+00
-3.2870e-03 1.2270e-02 0.0000e+00
-6.3500e-03 1.1000e-02 0.0000e+00
-8.9800e-03 8.9800e-03 0.0000e+00
-1.1000e-02 6.3500e-03 0.0000e+00
-1.2270e-02 3.2870e-03 0.0000e+00
-1.2700e-02 0.0000e+00 0.0000e+00
-1.2270e-02 -3.2870e-03 0.0000e+00
-1.1000e-02 -6.3500e-03 0.0000e+00
-8.9800e-03 -8.9800e-03 0.0000e+00
-6.3500e-03 -1.1000e-02 0.0000e+00
-3.2870e-03 -1.2270e-02 0.0000e+00
0.0000e+00 -1.2700e-02 0.0000e+00
3.2870e-03 -1.2270e-02 0.0000e+00
6.3500e-03 -1.1000e-02 0.0000e+00
8.9800e-03 -8.9800e-03 0.0000e+00
1.1000e-02 -6.3500e-03 0.0000e+00
1.2270e-02 -3.2870e-03 0.0000e+00
1.2640e-02 1.2360e-03 1.5000e-02
1.2640e-02 -1.2360e-03 1.5000e-02
1.2640e-02 1.2340e-03 1.0900e-02
1.2640e-02 1.2330e-03 1.9580e-02
1.2640e-02 -1.2360e-03 1.0710e-02
1.2640e-02 -1.2360e-03 1.9290e-02
-1.1730e-02 4.8780e-03 2.7400e-02
-4.8600e-03 -1.1730e-02 2.7130e-02
-4.8600e-03 1.1730e-02 2.8690e-03
-1.1730e-02 -4.8600e-03 2.8690e-03
4.8870e-03 1.1720e-02 2.8000e-03
4.9170e-03 -1.1710e-02 2.7870e-03
1.6580e-03 1.2590e-02 2.7130e-02
4.8600e-03 -1.1730e-02 2.7130e-02
-1.1730e-02 4.8600e-03 2.8690e-03
-4.8290e-03 -1.1750e-02 2.6790e-03
-1.1730e-02 -4.8600e-03 2.7130e-02
1.2640e-02 -1.2360e-03 6.4290e-03
1.2640e-02 1.2360e-03 6.4290e-03
1.2640e-02 -1.2360e-03 2.3570e-02
1.2640e-02 1.2360e-03 2.3570e-02
9.9890e-03 7.8430e-03 2.7210e-02
1.0080e-02 7.7310e-03 2.8690e-03
1.0120e-02 -7.6750e-03 2.6480e-02
1.0080e-02 -7.7310e-03 2.8690e-03
-4.8600e-03 1.1730e-02 2.7130e-02
1.2640e-02 -1.2450e-03 3.5660e-03
1.2640e-02 1.2360e-03 3.5710e-03
1.2640e-02 -1.2360e-03 2.6430e-02
1.2640e-02 1.2510e-03 2.6420e-02
7.6620e-03 1.0130e-02 2.7590e-03
6.3420e-03 1.1000e-02 5.4360e-03
3.6450e-03 1.2170e-02 5.4880e-03
5.1180e-03 1.1620e-02 7.9890e-03
2.3210e-03 1.2490e-02 8.1310e-03
3.8830e-03 1.2090e-02 1.0610e-02
9.0250e-04 1.2670e-02 1.0800e-02
6.5180e-03 1.0900e-02 1.0420e-02
5.3840e-03 1.1500e-02 1.2960e-02
7.7730e-03 1.0040e-02 1.2810e-02
6.7650e-03 1.0750e-02 1.5270e-02
4.2500e-03 1.1970e-02 1.5540e-02
8.8680e-03 9.0910e-03 1.5110e-02
7.9730e-03 9.8850e-03 1.7470e-02
9.7320e-03 8.1590e-03 1.2650e-02
9.8390e-03 8.0300e-03 1.7250e-02
9.0200e-03 8.9400e-03 1.9660e-02
6.9690e-03 1.0620e-02 1.9910e-02
1.0650e-02 6.9190e-03 1.9470e-02
1.1160e-02 6.0630e-03 1.7340e-02
-8.0230e-04 1.2670e-02 8.5140e-03
-2.1620e-03 1.2510e-02 1.1030e-02
8.1790e-03 9.7160e-03 2.2170e-02
5.8670e-03 1.1260e-02 2.2280e-02
-4.6150e-04 1.2690e-02 1.3580e-02
-3.5500e-03 1.2190e-02 1.3790e-02
-5.2170e-03 1.1580e-02 1.1260e-02
-6.4870e-03 1.0920e-02 1.4040e-02
-1.9190e-03 1.2550e-02 1.6070e-02
-7.9230e-03 9.9260e-03 1.1290e-02
-9.0120e-03 8.9480e-03 1.4180e-02
-7.6750e-03 1.0120e-02 1.6900e-02
-9.9850e-03 7.8480e-03 1.7090e-02
-1.0990e-02 6.3600e-03 1.4360e-02
-1.1660e-02 5.0410e-03 1.7280e-02
-1.2260e-02 3.3280e-03 1.4560e-02
-1.2560e-02 1.8780e-03 1.7480e-02
-1.2700e-02 7.4760e-05 1.4730e-02
-1.2620e-02 -1.4090e-03 1.7670e-02
-1.2290e-02 -3.1970e-03 1.4920e-02
-1.1830e-02 -4.6130e-03 1.7870e-02
-1.1050e-02 -6.2560e-03 1.5110e-02
-1.0240e-02 -7.5060e-03 1.8060e-02
-9.0700e-03 -8.8890e-03 1.5320e-02
-7.9640e-03 -9.8930e-03 1.8250e-02
-6.4710e-03 -1.0930e-02 1.5490e-02
-5.1620e-03 -1.1600e-02 1.8430e-02
-3.4570e-03 -1.2220e-02 1.5700e-02
-2.0320e-03 -1.2540e-02 1.8610e-02
-2.5300e-04 -1.2700e-02 1.5900e-02
-1.6910e-03 -1.2590e-02 1.3020e-02
1.4920e-03 -1.2610e-02 1.3250e-02
2.8850e-03 -1.2370e-02 1.6030e-02
4.5010e-03 -1.1880e-02 1.3530e-02
5.7540e-03 -1.1320e-02 1.6030e-02
7.1940e-03 -1.0470e-02 1.3770e-02
8.2090e-03 -9.6900e-03 1.6160e-02
9.3000e-03 -8.6480e-03 1.3920e-02
1.0040e-02 -7.7770e-03 1.6120e-02
8.4480e-03 -9.4830e-03 1.1540e-02
9.1560e-03 -8.8010e-03 1.8410e-02
-1.0050e-02 -7.7700e-03 1.2350e-02
1.0190e-02 -7.5800e-03 1.1640e-02
7.4750e-05 -1.2700e-02 1.0370e-02
-1.2600e-02 1.5580e-03 1.1800e-02
1.0690e-02 -6.8620e-03 1.8410e-02
-8.7710e-03 9.1840e-03 1.9800e-02
4.2850e-03 -1.1960e-02 1.8740e-02
-3.0970e-03 -1.2320e-02 1.0150e-02
-1.2690e-02 5.5970e-04 2.1280e-02
9.5470e-03 -8.3750e-03 9.4630e-03
1.0980e-02 -6.3850e-03 9.6790e-03
7.6490e-03 -1.0140e-02 9.1440e-03
1.1450e-02 -5.4920e-03 1.1860e-02
9.9750e-03 -7.8610e-03 2.0580e-02
1.1380e-02 -5.6480e-03 2.0420e-02
1.1270e-02 -5.8590e-03 1.6160e-02
-9.2950e-03 -8.6540e-03 2.1010e-02
-6.2030e-03 1.1080e-02 1.9520e-02
1.1800e-02 4.6840e-03 1.9370e-02
1.1340e-02 5.7270e-03 2.1360e-02
1.2050e-02 3.9970e-03 1.7380e-02
1.1660e-02 5.0230e-03 1.5420e-02
-1.3010e-03 -1.2630e-02 7.6740e-03
8.1880e-03 -9.7080e-03 2.0620e-02
1.8460e-03 -1.2570e-02 7.8470e-03
-6.7220e-03 1.0780e-02 8.4180e-03
-9.2370e-03 8.7160e-03 8.5730e-03
1.0430e-02 -7.2420e-03 7.0870e-03
1.1610e-02 -5.1500e-03 7.7030e-03
-3.7670e-03 -1.2130e-02 2.1330e-02
-5.5140e-04 -1.2690e-02 2.1530e-02
1.2100e-02 3.8460e-03 2.1550e-02
1.1840e-02 4.6050e-03 2.3290e-02
4.3750e-03 1.1920e-02 2.0100e-02
1.0700e-02 -6.8390e-03 2.2690e-02
1.1760e-02 -4.8060e-03 2.2760e-02
7.2460e-03 1.0430e-02 2.4830e-02
-7.4160e-03 1.0310e-02 2.2310e-02
-4.4340e-03 1.1900e-02 2.1940e-02
-9.7390e-03 8.1520e-03 2.2490e-02
-8.1490e-03 9.7410e-03 5.6700e-03
1.0870e-02 6.5680e-03 2.3410e-02
1.2140e-02 -3.7300e-03 2.0810e-02
3.0840e-03 1.2320e-02 2.2670e-02
1.4420e-03 1.2620e-02 2.0440e-02
4.5020e-04 -1.2690e-02 5.1100e-03
9.6030e-06 1.2700e-02 2.2900e-02
-4.4800e-03 -1.1880e-02 7.2550e-03
-6.1060e-03 -1.1140e-02 9.8930e-03
-7.3790e-03 -1.0340e-02 7.4290e-03
1.1530e-02 5.3160e-03 2.5350e-02
-8.5290e-03 9.4100e-03 2.4930e-02
1.1340e-02 -5.7140e-03 6.0290e-03
1.2040e-02 -4.0290e-03 5.8870e-03
1.1720e-02 -4.8900e-03 4.0320e-03
1.1710e-02 -4.9130e-03 1.8230e-02
1.2110e-02 -3.8240e-03 1.6550e-02
1.1810e-02 -4.6700e-03 1.4790e-02
8.6760e-03 9.2740e-03 5.4490e-03
1.0530e-02 7.0960e-03 5.6330e-03
9.5330e-03 8.3910e-03 7.7380e-03
1.0980e-02 6.3740e-03 7.9490e-03
1.1410e-02 5.5700e-03 3.6440e-03
1.1230e-02 -5.9240e-03 2.4760e-02
1.2110e-02 -3.8340e-03 2.4810e-02
1.0180e-02 7.5940e-03 1.0090e-02
1.1400e-02 5.6070e-03 1.0110e-02
1.1910e-02 4.4200e-03 8.1370e-03
1.2140e-02 3.7380e-03 1.0190e-02
1.1770e-02 4.7750e-03 1.1910e-02
1.2460e-02 2.4540e-03 8.7870e-03
1.2400e-02 2.7320e-03 1.2160e-02
1.2340e-02 -2.9880e-03 7.6470e-03
1.1940e-02 -4.3380e-03 9.9970e-03
1.2190e-02 -3.5640e-03 1.2170e-02
1.1670e-02 -5.0130e-03 2.7350e-02
-1.0370e-02 7.3350e-03 5.8280e-03
-1.1150e-02 6.0750e-03 8.7360e-03
1.0460e-02 7.1990e-03 1.5430e-02
-2.3340e-03 -1.2480e-02 2.4270e-02
8.9270e-04 -1.2670e-02 2.4560e-02
1.2300e-02 3.1440e-03 2.4960e-02
1.0860e-02 -6.5840e-03 1.3860e-02
7.6640e-03 -1.0130e-02 2.8210e-03
6.2890e-03 -1.1030e-02 5.1030e-03
8.9260e-03 -9.0340e-03 5.2960e-03
1.2350e-02 2.9810e-03 1.5590e-02
1.2450e-02 2.5060e-03 1.7210e-02
1.1670e-02 5.0210e-03 6.1770e-03
1.9560e-03 1.2550e-02 2.8540e-03
1.2050e-02 4.0040e-03 1.3770e-02
-1.3560e-03 1.2630e-02 2.9240e-03
-3.2700e-03 1.2270e-02 5.7830e-03
1.2310e-02 3.1150e-03 6.9880e-03
1.2280e-02 3.2500e-03 4.9980e-03
1.2360e-02 -2.9390e-03 1.8360e-02
1.2530e-02 -2.0990e-03 1.6410e-02
-1.7240e-03 1.2580e-02 2.0280e-02
7.7240e-03 -1.0080e-02 2.7140e-02
6.3500e-03 -1.1000e-02 2.4390e-02
8.9000e-03 -9.0600e-03 2.4410e-02
2.6360e-03 -1.2420e-02 2.1660e-02
3.2190e-03 -1.2290e-02 1.0720e-02
1.2420e-02 2.6730e-03 1.8660e-02
5.1650e-03 -1.1600e-02 8.0700e-03
1.2780e-03 1.2640e-02 1.5910e-02
7.5210e-03 1.0230e-02 7.9990e-03
-1.7170e-03 1.2580e-02 2.7490e-02
1.2360e-02 -2.9020e-03 2.2750e-02
1.2540e-02 -2.0050e-03 2.0780e-02
-1.0830e-02 6.6360e-03 1.9950e-02
-1.1510e-02 5.3730e-03 2.2380e-02
4.8600e-03 1.1730e-02 2.7130e-02
1.2230e-02 3.4220e-03 2.7430e-02
-1.1210e-02 -5.9650e-03 2.0820e-02
-1.0440e-02 -7.2390e-03 2.3770e-02
-8.2150e-03 -9.6850e-03 2.3960e-02
-1.1940e-02 -4.3160e-03 2.3820e-02
-1.2580e-02 -1.7380e-03 2.5330e-02
-1.0050e-02 -7.7620e-03 2.7070e-02
-1.2370e-02 -2.8740e-03 2.0620e-02
-6.7660e-03 -1.0750e-02 2.1130e-02
1.1740e-03 -1.2650e-02 1.8760e-02
-1.2160e-02 3.6540e-03 2.0200e-02
-1.0180e-02 7.5920e-03 1.1470e-02
-1.2580e-02 -1.7360e-03 1.1970e-02
-1.2700e-02 -2.4950e-04 9.0240e-03
-1.2220e-02 -3.4710e-03 9.2290e-03
-1.2530e-02 -2.0560e-03 6.2590e-03
-1.2640e-02 1.2460e-03 6.0730e-03
-1.1580e-02 -5.2160e-03 6.1630e-03
-1.0240e-02 -7.5140e-03 4.3480e-03
-9.9650e-03 -7.8730e-03 7.1880e-03
-1.2600e-02 -1.6200e-03 2.9340e-03
[...]
POINT_DATA 1045
VECTORS Position float
1.2700e-02 0.0000e+00 3.0000e-02
1.2700e-02 0.0000e+00 0.0000e+00
1.2270e-02 3.2870e-03 3.0000e-02
1.1000e-02 6.3500e-03 3.0000e-02
8.9800e-03 8.9800e-03 3.0000e-02
6.3500e-03 1.1000e-02 3.0000e-02
3.2870e-03 1.2270e-02 3.0000e-02
0.0000e+00 1.2700e-02 3.0000e-02
-3.2870e-03 1.2270e-02 3.0000e-02
-6.3500e-03 1.1000e-02 3.0000e-02
-8.9800e-03 8.9800e-03 3.0000e-02
-1.1000e-02 6.3500e-03 3.0000e-02
-1.2270e-02 3.2870e-03 3.0000e-02
-1.2700e-02 0.0000e+00 3.0000e-02
-1.2270e-02 -3.2870e-03 3.0000e-02
-1.1000e-02 -6.3500e-03 3.0000e-02
-8.9800e-03 -8.9800e-03 3.0000e-02
-6.3500e-03 -1.1000e-02 3.0000e-02
-3.2870e-03 -1.2270e-02 3.0000e-02
0.0000e+00 -1.2700e-02 3.0000e-02
3.2870e-03 -1.2270e-02 3.0000e-02
6.3500e-03 -1.1000e-02 3.0000e-02
8.9800e-03 -8.9800e-03 3.0000e-02
1.1000e-02 -6.3500e-03 3.0000e-02
1.2270e-02 -3.2870e-03 3.0000e-02
1.2700e-02 0.0000e+00 1.4290e-03
1.2700e-02 0.0000e+00 2.8570e-03
1.2700e-02 0.0000e+00 4.2860e-03
1.2700e-02 0.0000e+00 5.7140e-03
1.2700e-02 0.0000e+00 7.1430e-03
1.2700e-02 0.0000e+00 8.5710e-03
1.2700e-02 0.0000e+00 1.0000e-02
1.2700e-02 0.0000e+00 1.1430e-02
1.2700e-02 0.0000e+00 1.2860e-02
1.2700e-02 0.0000e+00 1.4290e-02
1.2700e-02 0.0000e+00 1.5710e-02
1.2700e-02 0.0000e+00 1.7140e-02
1.2700e-02 0.0000e+00 1.8570e-02
1.2700e-02 0.0000e+00 2.0000e-02
1.2700e-02 0.0000e+00 2.1430e-02
1.2700e-02 0.0000e+00 2.2860e-02
1.2700e-02 0.0000e+00 2.4290e-02
1.2700e-02 0.0000e+00 2.5710e-02
1.2700e-02 0.0000e+00 2.7140e-02
1.2700e-02 0.0000e+00 2.8570e-02
1.2270e-02 3.2870e-03 0.0000e+00
1.1000e-02 6.3500e-03 0.0000e+00
8.9800e-03 8.9800e-03 0.0000e+00
6.3500e-03 1.1000e-02 0.0000e+00
3.2870e-03 1.2270e-02 0.0000e+00
0.0000e+00 1.2700e-02 0.0000e+00
-3.2870e-03 1.2270e-02 0.0000e+00
-6.3500e-03 1.1000e-02 0.0000e+00
-8.9800e-03 8.9800e-03 0.0000e+00
-1.1000e-02 6.3500e-03 0.0000e+00
-1.2270e-02 3.2870e-03 0.0000e+00
-1.2700e-02 0.0000e+00 0.0000e+00
-1.2270e-02 -3.2870e-03 0.0000e+00
-1.1000e-02 -6.3500e-03 0.0000e+00
-8.9800e-03 -8.9800e-03 0.0000e+00
-6.3500e-03 -1.1000e-02 0.0000e+00
-3.2870e-03 -1.2270e-02 0.0000e+00
0.0000e+00 -1.2700e-02 0.0000e+00
3.2870e-03 -1.2270e-02 0.0000e+00
6.3500e-03 -1.1000e-02 0.0000e+00
8.9800e-03 -8.9800e-03 0.0000e+00
1.1000e-02 -6.3500e-03 0.0000e+00
1.2270e-02 -3.2870e-03 0.0000e+00
1.2640e-02 1.2360e-03 1.5000e-02
1.2640e-02 -1.2360e-03 1.5000e-02
1.2640e-02 1.2340e-03 1.0900e-02
1.2640e-02 1.2330e-03 1.9580e-02
1.2640e-02 -1.2360e-03 1.0710e-02
1.2640e-02 -1.2360e-03 1.9290e-02
-1.1730e-02 4.8780e-03 2.7400e-02
-4.8600e-03 -1.1730e-02 2.7130e-02
-4.8600e-03 1.1730e-02 2.8690e-03
-1.1730e-02 -4.8600e-03 2.8690e-03
4.8870e-03 1.1720e-02 2.8000e-03
4.9170e-03 -1.1710e-02 2.7870e-03
1.6580e-03 1.2590e-02 2.7130e-02
4.8600e-03 -1.1730e-02 2.7130e-02
-1.1730e-02 4.8600e-03 2.8690e-03
-4.8290e-03 -1.1750e-02 2.6790e-03
-1.1730e-02 -4.8600e-03 2.7130e-02
1.2640e-02 -1.2360e-03 6.4290e-03
1.2640e-02 1.2360e-03 6.4290e-03
1.2640e-02 -1.2360e-03 2.3570e-02
1.2640e-02 1.2360e-03 2.3570e-02
9.9890e-03 7.8430e-03 2.7210e-02
1.0080e-02 7.7310e-03 2.8690e-03
1.0120e-02 -7.6750e-03 2.6480e-02
1.0080e-02 -7.7310e-03 2.8690e-03
-4.8600e-03 1.1730e-02 2.7130e-02
1.2640e-02 -1.2450e-03 3.5660e-03
1.2640e-02 1.2360e-03 3.5710e-03
1.2640e-02 -1.2360e-03 2.6430e-02
1.2640e-02 1.2510e-03 2.6420e-02
7.6620e-03 1.0130e-02 2.7590e-03
6.3420e-03 1.1000e-02 5.4360e-03
3.6450e-03 1.2170e-02 5.4880e-03
5.1180e-03 1.1620e-02 7.9890e-03
2.3210e-03 1.2490e-02 8.1310e-03
3.8830e-03 1.2090e-02 1.0610e-02
9.0250e-04 1.2670e-02 1.0800e-02
6.5180e-03 1.0900e-02 1.0420e-02
5.3840e-03 1.1500e-02 1.2960e-02
7.7730e-03 1.0040e-02 1.2810e-02
6.7650e-03 1.0750e-02 1.5270e-02
4.2500e-03 1.1970e-02 1.5540e-02
8.8680e-03 9.0910e-03 1.5110e-02
7.9730e-03 9.8850e-03 1.7470e-02
9.7320e-03 8.1590e-03 1.2650e-02
9.8390e-03 8.0300e-03 1.7250e-02
9.0200e-03 8.9400e-03 1.9660e-02
6.9690e-03 1.0620e-02 1.9910e-02
1.0650e-02 6.9190e-03 1.9470e-02
1.1160e-02 6.0630e-03 1.7340e-02
-8.0230e-04 1.2670e-02 8.5140e-03
-2.1620e-03 1.2510e-02 1.1030e-02
8.1790e-03 9.7160e-03 2.2170e-02
5.8670e-03 1.1260e-02 2.2280e-02
-4.6150e-04 1.2690e-02 1.3580e-02
-3.5500e-03 1.2190e-02 1.3790e-02
-5.2170e-03 1.1580e-02 1.1260e-02
-6.4870e-03 1.0920e-02 1.4040e-02
-1.9190e-03 1.2550e-02 1.6070e-02
-7.9230e-03 9.9260e-03 1.1290e-02
-9.0120e-03 8.9480e-03 1.4180e-02
-7.6750e-03 1.0120e-02 1.6900e-02
-9.9850e-03 7.8480e-03 1.7090e-02
-1.0990e-02 6.3600e-03 1.4360e-02
-1.1660e-02 5.0410e-03 1.7280e-02
-1.2260e-02 3.3280e-03 1.4560e-02
-1.2560e-02 1.8780e-03 1.7480e-02
-1.2700e-02 7.4760e-05 1.4730e-02
-1.2620e-02 -1.4090e-03 1.7670e-02
-1.2290e-02 -3.1970e-03 1.4920e-02
-1.1830e-02 -4.6130e-03 1.7870e-02
-1.1050e-02 -6.2560e-03 1.5110e-02
-1.0240e-02 -7.5060e-03 1.8060e-02
-9.0700e-03 -8.8890e-03 1.5320e-02
-7.9640e-03 -9.8930e-03 1.8250e-02
-6.4710e-03 -1.0930e-02 1.5490e-02
-5.1620e-03 -1.1600e-02 1.8430e-02
-3.4570e-03 -1.2220e-02 1.5700e-02
-2.0320e-03 -1.2540e-02 1.8610e-02
-2.5300e-04 -1.2700e-02 1.5900e-02
-1.6910e-03 -1.2590e-02 1.3020e-02
1.4920e-03 -1.2610e-02 1.3250e-02
2.8850e-03 -1.2370e-02 1.6030e-02
4.5010e-03 -1.1880e-02 1.3530e-02
5.7540e-03 -1.1320e-02 1.6030e-02
7.1940e-03 -1.0470e-02 1.3770e-02
8.2090e-03 -9.6900e-03 1.6160e-02
9.3000e-03 -8.6480e-03 1.3920e-02
1.0040e-02 -7.7770e-03 1.6120e-02
8.4480e-03 -9.4830e-03 1.1540e-02
9.1560e-03 -8.8010e-03 1.8410e-02
-1.0050e-02 -7.7700e-03 1.2350e-02
1.0190e-02 -7.5800e-03 1.1640e-02
7.4750e-05 -1.2700e-02 1.0370e-02
-1.2600e-02 1.5580e-03 1.1800e-02
1.0690e-02 -6.8620e-03 1.8410e-02
-8.7710e-03 9.1840e-03 1.9800e-02
4.2850e-03 -1.1960e-02 1.8740e-02
-3.0970e-03 -1.2320e-02 1.0150e-02
-1.2690e-02 5.5970e-04 2.1280e-02
9.5470e-03 -8.3750e-03 9.4630e-03
1.0980e-02 -6.3850e-03 9.6790e-03
7.6490e-03 -1.0140e-02 9.1440e-03
1.1450e-02 -5.4920e-03 1.1860e-02
9.9750e-03 -7.8610e-03 2.0580e-02
1.1380e-02 -5.6480e-03 2.0420e-02
1.1270e-02 -5.8590e-03 1.6160e-02
-9.2950e-03 -8.6540e-03 2.1010e-02
-6.2030e-03 1.1080e-02 1.9520e-02
1.1800e-02 4.6840e-03 1.9370e-02
1.1340e-02 5.7270e-03 2.1360e-02
1.2050e-02 3.9970e-03 1.7380e-02
1.1660e-02 5.0230e-03 1.5420e-02
-1.3010e-03 -1.2630e-02 7.6740e-03
8.1880e-03 -9.7080e-03 2.0620e-02
1.8460e-03 -1.2570e-02 7.8470e-03
-6.7220e-03 1.0780e-02 8.4180e-03
-9.2370e-03 8.7160e-03 8.5730e-03
1.0430e-02 -7.2420e-03 7.0870e-03
1.1610e-02 -5.1500e-03 7.7030e-03
-3.7670e-03 -1.2130e-02 2.1330e-02
-5.5140e-04 -1.2690e-02 2.1530e-02
1.2100e-02 3.8460e-03 2.1550e-02
1.1840e-02 4.6050e-03 2.3290e-02
4.3750e-03 1.1920e-02 2.0100e-02
1.0700e-02 -6.8390e-03 2.2690e-02
1.1760e-02 -4.8060e-03 2.2760e-02
7.2460e-03 1.0430e-02 2.4830e-02
-7.4160e-03 1.0310e-02 2.2310e-02
-4.4340e-03 1.1900e-02 2.1940e-02
-9.7390e-03 8.1520e-03 2.2490e-02
-8.1490e-03 9.7410e-03 5.6700e-03
1.0870e-02 6.5680e-03 2.3410e-02
1.2140e-02 -3.7300e-03 2.0810e-02
3.0840e-03 1.2320e-02 2.2670e-02
1.4420e-03 1.2620e-02 2.0440e-02
4.5020e-04 -1.2690e-02 5.1100e-03
9.6030e-06 1.2700e-02 2.2900e-02
-4.4800e-03 -1.1880e-02 7.2550e-03
-6.1060e-03 -1.1140e-02 9.8930e-03
-7.3790e-03 -1.0340e-02 7.4290e-03
1.1530e-02 5.3160e-03 2.5350e-02
-8.5290e-03 9.4100e-03 2.4930e-02
1.1340e-02 -5.7140e-03 6.0290e-03
1.2040e-02 -4.0290e-03 5.8870e-03
1.1720e-02 -4.8900e-03 4.0320e-03
1.1710e-02 -4.9130e-03 1.8230e-02
1.2110e-02 -3.8240e-03 1.6550e-02
1.1810e-02 -4.6700e-03 1.4790e-02
8.6760e-03 9.2740e-03 5.4490e-03
1.0530e-02 7.0960e-03 5.6330e-03
9.5330e-03 8.3910e-03 7.7380e-03
1.0980e-02 6.3740e-03 7.9490e-03
1.1410e-02 5.5700e-03 3.6440e-03
1.1230e-02 -5.9240e-03 2.4760e-02
1.2110e-02 -3.8340e-03 2.4810e-02
1.0180e-02 7.5940e-03 1.0090e-02
1.1400e-02 5.6070e-03 1.0110e-02
1.1910e-02 4.4200e-03 8.1370e-03
1.2140e-02 3.7380e-03 1.0190e-02
1.1770e-02 4.7750e-03 1.1910e-02
1.2460e-02 2.4540e-03 8.7870e-03
1.2400e-02 2.7320e-03 1.2160e-02
1.2340e-02 -2.9880e-03 7.6470e-03
1.1940e-02 -4.3380e-03 9.9970e-03
1.2190e-02 -3.5640e-03 1.2170e-02
1.1670e-02 -5.0130e-03 2.7350e-02
-1.0370e-02 7.3350e-03 5.8280e-03
-1.1150e-02 6.0750e-03 8.7360e-03
1.0460e-02 7.1990e-03 1.5430e-02
-2.3340e-03 -1.2480e-02 2.4270e-02
8.9270e-04 -1.2670e-02 2.4560e-02
1.2300e-02 3.1440e-03 2.4960e-02
1.0860e-02 -6.5840e-03 1.3860e-02
7.6640e-03 -1.0130e-02 2.8210e-03
6.2890e-03 -1.1030e-02 5.1030e-03
8.9260e-03 -9.0340e-03 5.2960e-03
1.2350e-02 2.9810e-03 1.5590e-02
1.2450e-02 2.5060e-03 1.7210e-02
1.1670e-02 5.0210e-03 6.1770e-03
1.9560e-03 1.2550e-02 2.8540e-03
1.2050e-02 4.0040e-03 1.3770e-02
-1.3560e-03 1.2630e-02 2.9240e-03
-3.2700e-03 1.2270e-02 5.7830e-03
1.2310e-02 3.1150e-03 6.9880e-03
1.2280e-02 3.2500e-03 4.9980e-03
1.2360e-02 -2.9390e-03 1.8360e-02
1.2530e-02 -2.0990e-03 1.6410e-02
-1.7240e-03 1.2580e-02 2.0280e-02
7.7240e-03 -1.0080e-02 2.7140e-02
6.3500e-03 -1.1000e-02 2.4390e-02
8.9000e-03 -9.0600e-03 2.4410e-02
2.6360e-03 -1.2420e-02 2.1660e-02
3.2190e-03 -1.2290e-02 1.0720e-02
1.2420e-02 2.6730e-03 1.8660e-02
5.1650e-03 -1.1600e-02 8.0700e-03
1.2780e-03 1.2640e-02 1.5910e-02
7.5210e-03 1.0230e-02 7.9990e-03
-1.7170e-03 1.2580e-02 2.7490e-02
1.2360e-02 -2.9020e-03 2.2750e-02
1.2540e-02 -2.0050e-03 2.0780e-02
-1.0830e-02 6.6360e-03 1.9950e-02
-1.1510e-02 5.3730e-03 2.2380e-02
4.8600e-03 1.1730e-02 2.7130e-02
1.2230e-02 3.4220e-03 2.7430e-02
-1.1210e-02 -5.9650e-03 2.0820e-02
-1.0440e-02 -7.2390e-03 2.3770e-02
-8.2150e-03 -9.6850e-03 2.3960e-02
-1.1940e-02 -4.3160e-03 2.3820e-02
-1.2580e-02 -1.7380e-03 2.5330e-02
-1.0050e-02 -7.7620e-03 2.7070e-02
-1.2370e-02 -2.8740e-03 2.0620e-02
-6.7660e-03 -1.0750e-02 2.1130e-02
1.1740e-03 -1.2650e-02 1.8760e-02
-1.2160e-02 3.6540e-03 2.0200e-02
-1.0180e-02 7.5920e-03 1.1470e-02
-1.2580e-02 -1.7360e-03 1.1970e-02
-1.2700e-02 -2.4950e-04 9.0240e-03
-1.2220e-02 -3.4710e-03 9.2290e-03
-1.2530e-02 -2.0560e-03 6.2590e-03
-1.2640e-02 1.2460e-03 6.0730e-03
-1.1580e-02 -5.2160e-03 6.1630e-03
-1.0240e-02 -7.5140e-03 4.3480e-03
-9.9650e-03 -7.8730e-03 7.1880e-03
-1.2600e-02 -1.6200e-03 2.9340e-03
-1.1710e-02 -4.9220e-03 1.2150e-02
-1.2590e-02 1.6580e-03 2.7130e-02
-1.2670e-02 8.9630e-04 2.3810e-02
-7.9750e-03 -9.8840e-03 2.5920e-03
9.3610e-03 8.5830e-03 2.4520e-02
-1.2590e-02 1.6580e-03 2.8210e-03
-1.1780e-02 4.7440e-03 1.1650e-02
-7.7310e-03 -1.0080e-02 2.7180e-02
-7.7040e-03 -1.0100e-02 1.2610e-02
-1.2340e-02 3.0110e-03 8.9140e-03
-4.7920e-03 -1.1760e-02 1.2810e-02
-4.9050e-03 1.1710e-02 1.6650e-02
1.0970e-02 6.3930e-03 1.1620e-02
5.7170e-03 -1.1340e-02 2.1680e-02
1.2420e-02 -2.6340e-03 9.5650e-03
1.2340e-02 -2.9910e-03 1.5010e-02
1.2520e-02 -2.1410e-03 1.3560e-02
6.0750e-03 -1.1150e-02 1.1200e-02
-1.1880e-02 4.5010e-03 6.0500e-03
1.2640e-02 1.2400e-03 1.3560e-02
8.5880e-03 9.3560e-03 1.0300e-02
-5.4300e-03 -1.1480e-02 2.4000e-02
2.5580e-03 1.2440e-02 1.3230e-02
-1.0080e-02 7.7310e-03 2.6960e-03
1.1300e-02 5.7890e-03 1.3620e-02
1.2640e-02 -1.2360e-03 1.2140e-02
1.2640e-02 -1.2360e-03 9.2860e-03
1.2640e-02 1.2350e-03 2.0870e-02
1.2640e-02 1.2300e-03 1.2200e-02
-1.6580e-03 -1.2590e-02 2.7340e-02
6.0360e-04 1.2690e-02 5.5210e-03
-1.6830e-03 -1.2590e-02 2.6870e-03
7.0170e-03 -1.0590e-02 1.8420e-02
3.7430e-03 -1.2140e-02 5.4500e-03
5.7320e-03 1.1330e-02 1.7650e-02
9.9730e-03 7.8630e-03 2.1620e-02
-7.7310e-03 1.0080e-02 2.6140e-03
1.2180e-02 3.5920e-03 2.4910e-03
-1.0080e-02 7.7270e-03 2.7290e-02
1.2640e-02 1.2310e-03 5.0000e-03
1.2640e-02 1.2360e-03 2.2140e-02
1.2390e-02 2.8000e-03 2.3040e-02
1.2640e-02 1.2360e-03 7.8570e-03
1.2640e-02 -1.2430e-03 5.0840e-03
1.2640e-02 -1.2360e-03 7.8570e-03
1.6580e-03 -1.2590e-02 2.7430e-02
1.2610e-02 1.5320e-03 1.9140e-03
8.1330e-03 9.7540e-03 2.7420e-02
-8.6180e-03 -9.3280e-03 9.9150e-03
1.2350e-02 -2.9650e-03 4.1830e-03
-3.8080e-03 1.2120e-02 8.6310e-03
1.2650e-02 -1.1600e-03 1.7860e-02
1.2640e-02 1.2170e-03 9.4220e-03
3.7280e-03 -1.2140e-02 2.4410e-02
2.1250e-03 -1.2520e-02 2.5890e-03
1.2650e-02 -1.1470e-03 2.2140e-02
1.2430e-02 2.5920e-03 1.3560e-02
1.2640e-02 1.2360e-03 2.7860e-02
1.2640e-02 1.2360e-03 2.5000e-02
1.2640e-02 -1.2360e-03 2.5000e-02
1.2640e-02 -1.2360e-03 2.7860e-02
1.2340e-02 -3.0010e-03 2.7140e-02
1.2640e-02 -1.2360e-03 2.1430e-03
1.2150e-02 -3.7130e-03 1.3530e-02
-1.1100e-02 -6.1650e-03 9.4800e-03
-3.2950e-03 1.2270e-02 2.4740e-02
1.2650e-02 1.0920e-03 1.6620e-02
1.2250e-02 -3.3690e-03 2.1690e-03
-5.8490e-03 1.1270e-02 5.5800e-03
3.0450e-03 1.2330e-02 1.8010e-02
-5.8850e-03 1.1250e-02 2.4720e-02
1.2660e-02 1.0480e-03 1.7860e-02
1.2420e-02 -2.6350e-03 1.9670e-02
9.0720e-03 -8.8870e-03 7.1610e-03
9.3400e-03 -8.6050e-03 2.2590e-02
4.6510e-03 1.1820e-02 2.4600e-02
-2.8030e-03 -1.2390e-02 5.1690e-03
-1.2580e-02 -1.7100e-03 2.3070e-02
-1.2270e-02 3.2870e-03 2.5000e-02
-7.2940e-03 1.0400e-02 2.7460e-02
1.2430e-02 2.5950e-03 2.0210e-02
7.6760e-03 -1.0120e-02 2.2790e-02
-2.2280e-04 1.2700e-02 1.8210e-02
-3.8630e-03 1.2100e-02 1.8960e-02
1.1240e-02 5.9170e-03 2.7520e-02
1.2660e-02 -9.5620e-04 1.3570e-02
-1.0700e-02 6.8470e-03 2.4870e-02
-5.8550e-03 -1.1270e-02 5.1860e-03
1.2440e-02 -2.5800e-03 1.0940e-02
1.7010e-03 1.2590e-02 2.4670e-02
1.1610e-02 -5.1360e-03 1.3340e-02
-8.5540e-03 -9.3870e-03 5.0660e-03
1.2430e-02 -2.6180e-03 5.8500e-03
1.0610e-02 6.9730e-03 2.5390e-02
-1.0080e-02 -7.7310e-03 1.8610e-03
7.5000e-03 -1.0250e-02 7.0450e-03
1.2670e-02 -8.8140e-04 1.6430e-02
1.0180e-02 -7.5930e-03 4.8300e-03
1.0220e-02 -7.5350e-03 2.4480e-02
1.2470e-02 2.3810e-03 1.0100e-02
-1.2340e-02 2.9900e-03 2.2560e-02
1.2470e-02 2.4270e-03 2.1540e-02
1.2450e-02 -2.5190e-03 2.5300e-02
-1.2590e-02 -1.6580e-03 2.8240e-02
1.1150e-02 -6.0770e-03 2.0960e-03
1.2670e-02 -8.5420e-04 2.0720e-02
-2.2750e-03 1.2490e-02 2.2530e-02
1.2100e-02 -3.8440e-03 1.9350e-02
1.1540e-02 5.3090e-03 1.6450e-03
-5.4350e-04 1.2690e-02 2.5140e-02
-3.7200e-03 -8.9800e-03 3.0000e-02
3.7200e-03 8.9800e-03 3.0000e-02
-8.9800e-03 3.7200e-03 3.0000e-02
8.7940e-03 -3.7520e-03 3.0000e-02
-3.8170e-03 9.0420e-03 3.0000e-02
3.9320e-03 -9.2230e-03 3.0000e-02
-8.9800e-03 -3.7200e-03 3.0000e-02
9.0770e-03 3.6850e-03 3.0000e-02
-1.3620e-03 -1.0340e-02 3.0000e-02
-1.2950e-03 -7.2010e-03 3.0000e-02
-3.9220e-03 -5.7120e-03 3.0000e-02
-1.3130e-03 -3.8790e-03 3.0000e-02
-4.1270e-03 -2.4010e-03 3.0000e-02
-1.4940e-03 -5.6520e-04 3.0000e-02
1.4580e-03 -2.0350e-03 3.0000e-02
1.2440e-03 1.2770e-03 3.0000e-02
-1.7290e-03 2.7430e-03 3.0000e-02
4.1410e-03 -1.4850e-04 3.0000e-02
3.8480e-03 2.9430e-03 3.0000e-02
4.7000e-03 -3.5970e-03 3.0000e-02
1.4230e-03 -5.3460e-03 3.0000e-02
-4.3900e-03 8.0330e-04 3.0000e-02
-5.1280e-03 4.0190e-03 3.0000e-02
-1.9860e-03 6.1450e-03 3.0000e-02
9.5210e-04 4.4870e-03 3.0000e-02
-7.2930e-03 -1.2800e-03 3.0000e-02
1.1260e-03 7.6730e-03 3.0000e-02
6.6750e-03 1.6260e-03 3.0000e-02
7.2020e-03 -1.3030e-03 3.0000e-02
7.0600e-03 -6.3100e-03 3.0000e-02
9.7210e-03 9.1160e-04 3.0000e-02
-6.2910e-03 -7.5140e-03 3.0000e-02
3.7300e-03 5.9570e-03 3.0000e-02
6.2810e-03 7.5580e-03 3.0000e-02
-1.0730e-03 9.6980e-03 3.0000e-02
1.2110e-03 -9.0060e-03 3.0000e-02
-7.1140e-03 1.5650e-03 3.0000e-02
-7.3810e-03 6.3780e-03 3.0000e-02
-9.7920e-03 9.2040e-04 3.0000e-02
-6.4120e-03 -4.3430e-03 3.0000e-02
6.3640e-03 4.5450e-03 3.0000e-02
1.4450e-03 1.0290e-02 3.0000e-02
4.0190e-03 -6.5810e-03 3.0000e-02
-8.3990e-03 -6.1910e-03 3.0000e-02
8.3910e-03 6.2070e-03 3.0000e-02
-4.7220e-03 6.7250e-03 3.0000e-02
-6.2270e-03 8.4700e-03 3.0000e-02
-1.0300e-02 -1.6180e-03 3.0000e-02
1.0270e-02 -1.6520e-03 3.0000e-02
6.0640e-03 -8.5340e-03 3.0000e-02
-3.7200e-03 -8.9800e-03 0.0000e+00
3.7200e-03 8.9800e-03 0.0000e+00
-8.9800e-03 3.7200e-03 0.0000e+00
8.7940e-03 -3.7520e-03 0.0000e+00
-3.8170e-03 9.0420e-03 0.0000e+00
3.9320e-03 -9.2230e-03 0.0000e+00
-8.9800e-03 -3.7200e-03 0.0000e+00
9.0770e-03 3.6850e-03 0.0000e+00
-1.3620e-03 -1.0340e-02 0.0000e+00
-1.2950e-03 -7.2010e-03 0.0000e+00
-3.9220e-03 -5.7120e-03 0.0000e+00
-1.3130e-03 -3.8790e-03 0.0000e+00
-4.1270e-03 -2.4010e-03 0.0000e+00
-1.4940e-03 -5.6520e-04 0.0000e+00
1.4580e-03 -2.0350e-03 0.0000e+00
1.2440e-03 1.2770e-03 0.0000e+00
-1.7290e-03 2.7430e-03 0.0000e+00
4.1410e-03 -1.4850e-04 0.0000e+00
3.8480e-03 2.9430e-03 0.0000e+00
4.7000e-03 -3.5970e-03 0.0000e+00
1.4230e-03 -5.3460e-03 0.0000e+00
-4.3900e-03 8.0330e-04 0.0000e+00
-5.1280e-03 4.0190e-03 0.0000e+00
-1.9860e-03 6.1450e-03 0.0000e+00
9.5210e-04 4.4870e-03 0.0000e+00
-7.2930e-03 -1.2800e-03 0.0000e+00
1.1260e-03 7.6730e-03 0.0000e+00
6.6750e-03 1.6260e-03 0.0000e+00
7.2020e-03 -1.3030e-03 0.0000e+00
7.0600e-03 -6.3100e-03 0.0000e+00
9.7210e-03 9.1160e-04 0.0000e+00
-6.2910e-03 -7.5140e-03 0.0000e+00
3.7300e-03 5.9570e-03 0.0000e+00
6.2810e-03 7.5580e-03 0.0000e+00
-1.0730e-03 9.6980e-03 0.0000e+00
1.2110e-03 -9.0060e-03 0.0000e+00
-7.1140e-03 1.5650e-03 0.0000e+00
-7.3810e-03 6.3780e-03 0.0000e+00
-9.7920e-03 9.2040e-04 0.0000e+00
-6.4120e-03 -4.3430e-03 0.0000e+00
6.3640e-03 4.5450e-03 0.0000e+00
1.4450e-03 1.0290e-02 0.0000e+00
4.0190e-03 -6.5810e-03 0.0000e+00
-8.3990e-03 -6.1910e-03 0.0000e+00
8.3910e-03 6.2070e-03 0.0000e+00
-4.7220e-03 6.7250e-03 0.0000e+00
-6.2270e-03 8.4700e-03 0.0000e+00
-1.0300e-02 -1.6180e-03 0.0000e+00
1.0270e-02 -1.6520e-03 0.0000e+00
6.0640e-03 -8.5340e-03 0.0000e+00
8.3740e-05 -7.3780e-06 1.3210e-02
4.1000e-03 5.8390e-05 2.0840e-02
5.2770e-03 5.0880e-05 7.8570e-03
6.8230e-03 9.5490e-06 1.3570e-02
-4.1730e-03 1.3840e-03 2.1450e-02
7.6080e-03 -1.6460e-04 2.5000e-02
8.2420e-03 9.7460e-05 1.7860e-02
4.2290e-03 4.8470e-03 1.6710e-02
-1.1330e-03 -5.0140e-03 1.8760e-02
-3.9610e-04 -5.0510e-03 7.4920e-03
-4.9700e-04 5.0810e-03 7.5040e-03
4.9490e-03 -4.7260e-03 1.6670e-02
8.6750e-03 -6.2950e-04 1.0000e-02
8.9210e-04 5.8390e-03 2.2600e-02
8.4710e-03 -2.1320e-04 5.0000e-03
4.7930e-03 -4.6060e-03 1.1020e-02
-5.4840e-03 -3.6200e-05 8.5980e-03
-2.4880e-03 5.4170e-03 1.6300e-02
8.8560e-03 1.1220e-03 2.1510e-02
5.3800e-03 4.7700e-03 1.0930e-02
3.2660e-03 -5.6920e-03 2.3170e-02
-5.9000e-03 -1.5100e-03 1.5710e-02
-2.8930e-04 -6.8150e-03 1.3160e-02
-4.6550e-03 -4.0960e-03 2.4140e-02
4.9330e-03 5.0370e-03 5.3730e-03
7.7310e-03 -3.1360e-03 2.0870e-02
5.6360e-03 -4.7700e-03 5.4770e-03
9.6310e-03 -2.6320e-04 1.5000e-02
8.5790e-03 -3.1400e-03 1.3020e-02
7.9470e-03 3.3950e-03 1.5510e-02
-4.2610e-03 5.9380e-03 2.4560e-02
5.8530e-03 4.6920e-03 2.3950e-02
-3.8740e-05 -8.7710e-04 2.4560e-02
1.2630e-03 7.3090e-03 1.3080e-02
-5.1380e-03 4.9650e-03 1.1290e-02
3.1970e-04 2.5570e-05 5.3380e-03
-5.2740e-03 -4.9660e-03 1.1310e-02
-1.7450e-04 1.2240e-03 1.8210e-02
8.5710e-03 2.5070e-03 7.7440e-03
8.6980e-03 2.6650e-03 1.1750e-02
8.5290e-03 -3.3000e-03 1.6640e-02
-5.5880e-03 -4.6690e-03 5.5020e-03
7.3980e-03 -4.4490e-03 2.4680e-02
1.0090e-02 2.8370e-04 1.2140e-02
-6.9100e-03 3.1620e-03 1.7520e-02
4.3370e-03 -6.5480e-04 1.6790e-02
-7.6950e-03 1.7330e-04 2.5050e-02
7.3040e-03 4.4310e-03 1.9500e-02
-6.1280e-03 -4.9330e-03 1.9400e-02
1.0040e-03 8.0040e-03 1.8320e-02
-5.6560e-03 4.6610e-03 5.9040e-03
1.8210e-03 -8.0370e-03 1.7030e-02
-3.1800e-03 7.6290e-03 2.0350e-02
-1.3420e-03 -7.7130e-03 2.3010e-02
1.0010e-02 -2.8170e-04 2.6430e-02
3.5580e-03 1.1450e-03 1.1400e-02
1.0040e-02 -2.8330e-04 2.3570e-02
-8.1940e-03 -6.9130e-04 1.9990e-02
8.7610e-03 -2.9870e-03 7.2790e-03
2.7990e-03 7.8500e-03 8.8700e-03
3.5430e-03 1.4060e-03 2.5850e-02
-7.9110e-03 1.2940e-03 1.2450e-02
4.4960e-03 7.3030e-03 2.0890e-02
1.0110e-02 -6.7500e-04 1.9960e-02
-4.0800e-03 -6.9860e-03 1.5800e-02
1.1480e-03 -3.1870e-03 1.5740e-02
1.9600e-03 -2.0790e-03 9.2600e-03
4.7130e-03 1.1630e-03 3.8970e-03
2.2210e-03 -8.0310e-03 9.6280e-03
1.0110e-02 2.8650e-04 7.8570e-03
8.1990e-03 3.5020e-03 4.0490e-03
1.7740e-03 8.1630e-03 4.4620e-03
1.0440e-02 -6.7760e-04 1.7180e-02
-2.4190e-03 -7.8480e-03 4.4290e-03
2.1990e-03 -7.8110e-03 4.8220e-03
4.2950e-03 -7.5740e-03 1.3800e-02
-3.3700e-03 1.7730e-03 2.5800e-02
3.1510e-03 7.4660e-03 2.5950e-02
-7.2570e-03 4.5030e-03 2.1690e-02
-2.1400e-03 8.1160e-03 1.0320e-02
-3.7440e-03 1.8990e-03 1.4060e-02
3.7060e-03 -1.9500e-03 1.3390e-02
2.4670e-03 -3.3880e-03 1.9540e-02
8.8820e-03 3.0260e-03 2.5860e-02
-9.4410e-04 8.4640e-03 2.5390e-02
-8.1490e-03 2.0170e-04 4.5450e-03